58
Properties=species:S:1:pos:R:3 Coordinates=T from=T ORCA-job=T ./CoPc=T E=T -3047.788896697375=T pbc="F F F"
Co      -0.03441734       0.08221441       0.09622508
N       -1.96469911       0.19397149       0.12979329
N        1.89511299      -0.02991948       0.06415425
N        0.07615815       2.01139196       0.03640364
N       -0.14553056      -1.84724064       0.15766435
C       -2.83848432      -0.86725330       0.17908191
C       -2.71137159       1.34925117       0.10922821
C       -4.12954481       1.02220465       0.14700670
C       -4.20991714      -0.37840008       0.19112535
C        1.23124970       2.75736306      -0.00754449
C        0.90349214       4.17518996      -0.04404580
C       -0.49775535       4.25644256      -0.02063626
C       -0.98592553       2.88585950       0.02982201
C        0.42821982      -4.09232367       0.21593858
C        0.91645625      -2.72166653       0.16478450
C       -1.30064203      -2.59304273       0.20213741
C       -0.97287075      -4.01100883       0.23934470
C        4.05986266      -0.85824706       0.04805223
C        4.14052638       0.54232550       0.00392848
C        2.76920720       1.03143896       0.01538958
C        2.64163812      -1.18508977       0.08525163
C        5.37297580       1.19813838      -0.04005015
C        5.20853929      -1.65287512       0.04982354
C        6.44163190      -1.00069604       0.00582019
H        7.36388740      -1.58745978       0.00563206
C        6.52274164       0.40706211      -0.03855256
H        7.50631587       0.88272449      -0.07226300
C        1.69743503       5.32332667      -0.09301307
C       -1.15452961       5.48893495      -0.04558480
C       -0.36406829       6.63803330      -0.09441684
H       -0.84049957       7.62159571      -0.11507917
C        1.04418368       6.55634423      -0.11782667
H        1.63040021       7.47814321      -0.15618677
C       -5.27835904       1.81662862       0.14573184
C       -5.44223681      -1.03441112       0.23559943
C       -6.59214929      -0.24354765       0.23474149
H       -7.57561463      -0.71939718       0.26895260
C       -6.51132007       1.16422167       0.19037084
H       -7.43366617       1.75083556       0.19105375
C       -1.76700429      -5.15900238       0.28893019
C        1.08508774      -5.32476454       0.24151700
C        0.29451072      -6.47375945       0.29100825
H        0.77095489      -7.45730519       0.31220641
C       -1.11373665      -6.39200166       0.31440109
H       -1.70003091      -7.31373911       0.35329691
H       -5.49129849      -2.12456290       0.26961453
H       -5.20145951       2.90515568       0.11113101
H       -2.24502752       5.53865570      -0.02702163
H        2.78632252       5.24572382      -0.11079030
H        5.42228422       2.28827828      -0.07406281
H        5.13133769      -2.74138056       0.08441523
H        2.17556935      -5.37458233       0.22294687
H       -2.85587568      -5.08132575       0.30669827
N        2.47173938       2.31428205      -0.01766818
N        2.19945643      -2.42499702       0.13162778
N       -2.54109737      -2.15009334       0.21220558
N       -2.26896414       2.58912160       0.06292192
H       -0.00497309       0.12983006       1.66522661
