77
Properties=species:S:1:pos:R:3 Coordinates=T from=T ORCA-job=T ./CoPor=T E=T -2369.803340232490=T pbc="F F F"
Co       0.00213612       0.13787848       0.09524498
N       -1.98277208       0.27020450       0.12851130
N        1.98698421       0.00559604       0.06164614
N        0.13337154       2.12219088       0.03510295
N       -0.12911804      -1.84635142       0.15548049
C       -2.88845897      -0.76359753       0.17543220
H       -5.13244254      -0.88651031       0.22059519
C       -2.74447649       1.41499025       0.10918090
C       -4.15126504       1.09686010       0.14451062
H       -4.95253607       1.83443491       0.13782295
C       -4.24109246      -0.26170451       0.18579335
C       -2.24965136       2.70894874       0.06230173
C        1.27802652       2.88308906      -0.00850144
C        0.95904831       4.28968904      -0.04360884
H        1.69636618       5.09036142      -0.08085817
C       -0.39990775       4.38022203      -0.02080383
H       -1.02538144       5.27166657      -0.03519997
C       -0.90118557       3.02819900       0.02798516
C       -2.56834625      -2.11188080       0.20906685
H        1.02960706      -4.99581576       0.22656209
C        0.40414276      -4.10437090       0.21200056
C        0.90542573      -2.75237790       0.16263305
H       -1.69213381      -4.81447120       0.27263218
C       -1.27378045      -2.60722756       0.19946839
C       -0.95480627      -4.01381857       0.23501181
C        2.57258107       2.38771270      -0.01842927
H        4.95673549      -1.55866098       0.05083505
C        4.15546561      -0.82107541       0.04461107
C        4.24528105       0.53749658       0.00355315
H        5.13661938       1.16230354      -0.03148740
C        2.89266143       1.03940517       0.01458137
C        2.74869036      -1.13919981       0.08047596
C        2.25388287      -2.43315432       0.12767337
C        3.71575540       3.38821053      -0.06899159
C       -3.71149433      -3.11240155       0.25976898
C       -3.25098859       3.85241238       0.04764989
C        3.25521060      -3.57662914       0.14209905
C        4.98051949       2.98131003      -0.49455918
C        6.02982935       3.89906281      -0.54044235
C        5.81414396       5.22470093      -0.16173088
C        4.54949588       5.63153638       0.26326025
C        3.50029083       4.71318170       0.31003039
H        5.15023520       1.93652184      -0.79259006
H        7.02687026       3.57818764      -0.87520971
H        6.64156748       5.94807511      -0.19798779
H        4.37926434       6.67622168       0.56182342
H        2.50346467       5.03410419       0.64539075
C       -3.48041209      -4.41346284       0.70714414
C       -4.52910094      -5.33191830       0.75316428
C       -5.80982989      -4.94893953       0.35276498
C       -6.04087020      -3.64799347      -0.09403142
C       -4.99158746      -2.72973403      -0.14092841
H       -2.47097678      -4.71503801       1.02226467
H       -4.34681905      -6.35759751       1.10512468
H       -6.63645619      -5.67321895       0.38913434
H       -7.05012878      -3.34592828      -0.40968921
H       -5.17393715      -1.70427002      -0.49347965
C       -2.86427895       5.11243248      -0.40963450
C       -3.78277782       6.16201274      -0.42258466
C       -5.08901636       5.95133271       0.02082690
C       -5.47568835       4.69142271       0.47753124
C       -4.55654610       3.64195576       0.49133768
H       -1.83475924       5.27820781      -0.75865583
H       -3.47778562       7.15532105      -0.78236097
H       -5.81298283       6.77896842       0.01052432
H       -6.50508021       4.52513690       0.82708460
H       -4.86155732       2.64886826       0.85170634
C        2.85298865      -4.86072304      -0.22617309
C        3.77149796      -5.91028383      -0.21241090
C        5.09322364      -5.67556583       0.16865032
C        5.49538635      -4.39161560       0.53635162
C        4.57626636      -3.34211733       0.52347440
H        1.81127946      -5.04541794      -0.52606965
H        3.45430383      -6.92252846      -0.50201294
H        5.81719515      -6.50319114       0.17942320
H        6.53698717      -4.20637995       0.83675400
H        4.89350195      -2.33005864       0.81367952
