      -----------------------------------------------------------      
     |                   =====================                   |     
     |                           x T B                           |     
     |                   =====================                   |     
     |                         S. Grimme                         |     
     |          Mulliken Center for Theoretical Chemistry        |     
     |                    University of Bonn                     |     
      -----------------------------------------------------------      

   * xtb version 6.7.1 (edcfbbe) compiled by 'conda@c0858423619e' on 2025-09-04

   xtb is free software: you can redistribute it and/or modify it under
   the terms of the GNU Lesser General Public License as published by
   the Free Software Foundation, either version 3 of the License, or
   (at your option) any later version.
   
   xtb is distributed in the hope that it will be useful,
   but WITHOUT ANY WARRANTY; without even the implied warranty of
   MERCHANTABILITY or FITNESS FOR A PARTICULAR PURPOSE.  See the
   GNU Lesser General Public License for more details.
   
   Cite this work as:
   * C. Bannwarth, E. Caldeweyher, S. Ehlert, A. Hansen, P. Pracht,
     J. Seibert, S. Spicher, S. Grimme, WIREs Comput. Mol. Sci., 2020, 11,
     e01493. DOI: 10.1002/wcms.1493
   
   for GFN2-xTB:
   * C. Bannwarth, S. Ehlert and S. Grimme., J. Chem. Theory Comput., 2019,
     15, 1652-1671. DOI: 10.1021/acs.jctc.8b01176
   for GFN1-xTB:
   * S. Grimme, C. Bannwarth, P. Shushkov, J. Chem. Theory Comput., 2017,
     13, 1989-2009. DOI: 10.1021/acs.jctc.7b00118
   for GFN0-xTB:
   * P. Pracht, E. Caldeweyher, S. Ehlert, S. Grimme, ChemRxiv, 2019, preprint.
     DOI: 10.26434/chemrxiv.8326202.v1
   for GFN-FF:
   * S. Spicher and S. Grimme, Angew. Chem. Int. Ed., 2020, 59, 15665-15673.
     DOI: 10.1002/anie.202004239
   
   for ALPB and GBSA implicit solvation:
   * S. Ehlert, M. Stahn, S. Spicher, S. Grimme, J. Chem. Theory Comput.,
     2021, 17, 4250-4261. DOI: 10.1021/acs.jctc.1c00471
   
   for ddCOSMO and CPCM-X implicit solvation:
   * M. Stahn, S. Ehlert, S. Grimme, J. Phys. Chem. A,
     2023, XX, XXXX-XXXX. DOI: 10.1021/acs.jpca.3c04382
   
   for DFT-D4:
   * E. Caldeweyher, C. Bannwarth and S. Grimme, J. Chem. Phys., 2017,
     147, 034112. DOI: 10.1063/1.4993215
   * E. Caldeweyher, S. Ehlert, A. Hansen, H. Neugebauer, S. Spicher,
     C. Bannwarth and S. Grimme, J. Chem. Phys., 2019, 150, 154122.
     DOI: 10.1063/1.5090222
   * E. Caldeweyher, J.-M. Mewes, S. Ehlert and S. Grimme, Phys. Chem. Chem. Phys.
     2020, 22, 8499-8512. DOI: 10.1039/D0CP00502A
   
   for sTDA-xTB:
   * S. Grimme and C. Bannwarth, J. Chem. Phys., 2016, 145, 054103.
     DOI: 10.1063/1.4959605
   
   in the mass-spec context:
   * V. Asgeirsson, C. Bauer and S. Grimme, Chem. Sci., 2017, 8, 4879.
     DOI: 10.1039/c7sc00601b
   * J. Koopman and S. Grimme, ACS Omega 2019, 4, 12, 15120-15133.
     DOI: 10.1021/acsomega.9b02011
   
   for metadynamics refer to:
   * S. Grimme, J. Chem. Theory Comput., 2019, 155, 2847-2862
     DOI: 10.1021/acs.jctc.9b00143
   
   for SPH calculations refer to:
   * S. Spicher and S. Grimme, J. Chem. Theory Comput., 2021, 17, 1701-1714
     DOI: 10.1021/acs.jctc.0c01306
   
   for ONIOM refer to:
   * C. Plett, A. Katbashev, S. Ehlert, S. Grimme, M. Bursch,
     Phys. Chem. Chem. Phys., 2023, 25, 17860-17868. DOI: 10.1039/D3CP02178E
   
   for DIPRO refer to:
   * J. Kohn, N. Gildemeister, S. Grimme, D. Fazzi, A. Hansen,
     J. Chem. Phys., 2023, just accepted.
   
   for PTB refer to:
   * S. Grimme, M. Mueller, A. Hansen, J. Chem. Phys., 2023, 158, 124111.
     DOI: 10.1063/5.0137838
   
   with help from (in alphabetical order)
   P. Atkinson, C. Bannwarth, F. Bohle, G. Brandenburg, E. Caldeweyher
   M. Checinski, S. Dohm, S. Ehlert, S. Ehrlich, I. Gerasimov, C. Hölzer
   A. Katbashev, J. Kohn, J. Koopman, C. Lavigne, S. Lehtola, F. März, M. Müller,
   F. Musil, H. Neugebauer, J. Pisarek, C. Plett, P. Pracht, F. Pultar,
   J. Seibert, P. Shushkov, S. Spicher, M. Stahn, M. Steiner, T. Strunk,
   J. Stückrath, T. Rose, and J. Unsleber
   
 * started run on 2026/01/15 at 11:03:46.233     
   ID    Z sym.   atoms
    1    6 C      1-4, 6
    2    7 N      5, 7
    3   16 S      8
    4    8 O      9
    5    1 H      10-17

           -------------------------------------------------
          |                Calculation Setup                |
           -------------------------------------------------

          program call               : /h/28/cicsy/miniforge3/envs/elagente/bin/xtb N4-Me_TDSO_deprotonated.xyz --opt --gfn 2 -P 4 --chrg 0
          coordinate file            : N4-Me_TDSO_deprotonated.xyz
          omp threads                :                     4


           -------------------------------------------------
          |                 G F N 2 - x T B                 |
           -------------------------------------------------

        Reference                      10.1021/acs.jctc.8b01176
      * Hamiltonian:
        H0-scaling (s, p, d)           1.850000    2.230000    2.230000
        zeta-weighting                 0.500000
      * Dispersion:
        s8                             2.700000
        a1                             0.520000
        a2                             5.000000
        s9                             5.000000
      * Repulsion:
        kExp                           1.500000    1.000000
        rExp                           1.000000
      * Coulomb:
        alpha                          2.000000
        third order                    shell-resolved
        anisotropic                    true
        a3                             3.000000
        a5                             4.000000
        cn-shift                       1.200000
        cn-exp                         4.000000
        max-rad                        5.000000


          ...................................................
          :                      SETUP                      :
          :.................................................:
          :  # basis functions                  50          :
          :  # atomic orbitals                  49          :
          :  # shells                           27          :
          :  # electrons                        50          :
          :  max. iterations                   250          :
          :  Hamiltonian                  GFN2-xTB          :
          :  restarted?                      false          :
          :  GBSA solvation                  false          :
          :  PC potential                    false          :
          :  electronic temp.          300.0000000     K    :
          :  accuracy                    1.0000000          :
          :  -> integral cutoff          0.2500000E+02      :
          :  -> integral neglect         0.1000000E-07      :
          :  -> SCF convergence          0.1000000E-05 Eh   :
          :  -> wf. convergence          0.1000000E-03 e    :
          :  Broyden damping             0.4000000          :
          :  net charge                          0          :
          :  unpaired electrons                  0          :
          ...................................................

 iter      E             dE          RMSdq      gap      omega  full diag
   1    -28.0276117 -0.280276E+02  0.475E+00    2.61       0.0  T
   2    -28.1219163 -0.943046E-01  0.292E+00    1.89       1.0  T
   3    -28.1255035 -0.358721E-02  0.159E+00    2.05       1.0  T
   4    -28.1178237  0.767976E-02  0.788E-01    1.94       1.0  T
   5    -28.1259769 -0.815315E-02  0.326E-01    2.03       1.0  T
   6    -28.1266276 -0.650702E-03  0.110E-01    2.00       1.0  T
   7    -28.1266489 -0.213554E-04  0.586E-02    2.01       1.0  T
   8    -28.1266831 -0.341586E-04  0.260E-02    2.01       1.0  T
   9    -28.1266842 -0.108005E-05  0.101E-02    2.01       2.4  T
  10    -28.1266845 -0.329367E-06  0.284E-03    2.01       8.5  T
  11    -28.1266845 -0.347471E-07  0.165E-03    2.01      14.7  T
  12    -28.1266846 -0.318050E-08  0.361E-04    2.01      67.2  T
  13    -28.1266846 -0.390362E-09  0.126E-04    2.01     192.2  T

   *** convergence criteria satisfied after 13 iterations ***

         #    Occupation            Energy/Eh            Energy/eV
      -------------------------------------------------------------
         1        2.0000           -0.7315562             -19.9067
       ...           ...                  ...                  ...
        19        2.0000           -0.4656727             -12.6716
        20        2.0000           -0.4535377             -12.3414
        21        2.0000           -0.4356956             -11.8559
        22        2.0000           -0.4083439             -11.1116
        23        2.0000           -0.3732137             -10.1557
        24        2.0000           -0.3676904             -10.0054
        25        2.0000           -0.3609917              -9.8231 (HOMO)
        26                         -0.2872391              -7.8162 (LUMO)
        27                         -0.2025181              -5.5108
        28                         -0.1926192              -5.2414
        29                         -0.1272675              -3.4631
        30                         -0.0682589              -1.8574
       ...                                ...                  ...
        49                          0.7912254              21.5303
      -------------------------------------------------------------
                  HL-Gap            0.0737526 Eh            2.0069 eV
             Fermi-level           -0.3241154 Eh           -8.8196 eV

 SCC (total)                   0 d,  0 h,  0 min,  1.034 sec
 SCC setup                      ...        0 min,  0.008 sec (  0.812%)
 Dispersion                     ...        0 min,  0.000 sec (  0.010%)
 classical contributions        ...        0 min,  0.000 sec (  0.008%)
 integral evaluation            ...        0 min,  0.001 sec (  0.085%)
 iterations                     ...        0 min,  0.932 sec ( 90.179%)
 molecular gradient             ...        0 min,  0.092 sec (  8.885%)
 printout                       ...        0 min,  0.000 sec (  0.018%)

         :::::::::::::::::::::::::::::::::::::::::::::::::::::
         ::                     SUMMARY                     ::
         :::::::::::::::::::::::::::::::::::::::::::::::::::::
         :: total energy             -27.847551252496 Eh    ::
         :: gradient norm              0.137634162397 Eh/a0 ::
         :: HOMO-LUMO gap              2.006910683377 eV    ::
         ::.................................................::
         :: SCC energy               -28.126663390907 Eh    ::
         :: -> isotropic ES            0.061863973673 Eh    ::
         :: -> anisotropic ES          0.000726600636 Eh    ::
         :: -> anisotropic XC          0.016650231025 Eh    ::
         :: -> dispersion             -0.014754395541 Eh    ::
         :: repulsion energy           0.279112138411 Eh    ::
         :: add. restraining           0.000000000000 Eh    ::
         :: total charge              -0.000000000000 e     ::
         :::::::::::::::::::::::::::::::::::::::::::::::::::::

      ----------------------------------------------------------- 
     |                   =====================                   |
     |                        A N C O P T                        |
     |                   =====================                   |
     |               Approximate Normal Coordinate               |
     |                Rational Function Optimizer                |
      ----------------------------------------------------------- 
      ----------------------------------------------------------- 
     |                   =====================                   |
     |                        A N C O P T                        |
     |                   =====================                   |
     |               Approximate Normal Coordinate               |
     |                Rational Function Optimizer                |
      ----------------------------------------------------------- 

          ...................................................
          :                      SETUP                      :
          :.................................................:
          :   optimization level            normal          :
          :   max. optcycles                   200          :
          :   ANC micro-cycles                  20          :
          :   degrees of freedom                45          :
          :.................................................:
          :   RF solver                   davidson          :
          :   write xtbopt.log                true          :
          :   linear?                        false          :
          :   energy convergence         0.5000000E-05 Eh   :
          :   grad. convergence          0.1000000E-02 Eh/α :
          :   maxmium RF displ.          1.0000000          :
          :   Hlow (freq-cutoff)         0.1000000E-01      :
          :   Hmax (freq-cutoff)         5.0000000          :
          :   S6 in model hess.         20.0000000          :
          ...................................................

generating ANC from exact Hessian ...
Using Lindh-Hessian (1995)
 Shifting diagonal of input Hessian by    7.3754895103934504E-003
 Lowest  eigenvalues of input Hessian
    0.000000    0.000000    0.000000    0.000000    0.000000    0.000000
    0.010000    0.014506    0.016272    0.018087    0.020437    0.024063
    0.027942    0.033687    0.037151    0.048018    0.066584    0.069420
 Highest eigenvalues
    1.297003    1.459771    1.701766    1.901298    2.051738    2.114793


........................................................................
.............................. CYCLE    1 ..............................
........................................................................

 iter      E             dE          RMSdq      gap      omega  full diag
   1    -28.1266846 -0.281267E+02  0.422E-05    2.01       0.0  T
   2    -28.1266846 -0.359890E-11  0.280E-05    2.01     865.9  T
   3    -28.1266846  0.176215E-11  0.209E-05    2.01    1158.9  T
     SCC iter.                  ...        0 min,  0.285 sec
     gradient                   ...        0 min,  0.102 sec
 * total energy  :   -27.8475513 Eh     change       -0.4536105E-10 Eh
   gradient norm :     0.1376353 Eh/α   predicted     0.0000000E+00 (-100.00%)
   displ. norm   :     0.3064044 α      lambda       -0.2250588E-01
   maximum displ.:     0.1364870 α      in ANC's #9, #26, #15, ...

........................................................................
.............................. CYCLE    2 ..............................
........................................................................

 iter      E             dE          RMSdq      gap      omega  full diag
   1    -28.1652623 -0.281653E+02  0.491E-01    2.15       0.0  T
   2    -28.1633628  0.189945E-02  0.585E-01    2.20       1.0  T
   3    -28.1676570 -0.429419E-02  0.167E-01    2.15       1.0  T
   4    -28.1676608 -0.376373E-05  0.628E-02    2.16       1.0  T
   5    -28.1676714 -0.106504E-04  0.166E-02    2.16       1.5  T
   6    -28.1676718 -0.382218E-06  0.685E-03    2.16       3.5  T
   7    -28.1676721 -0.312082E-06  0.325E-03    2.16       7.5  T
   8    -28.1676722 -0.957574E-07  0.145E-03    2.16      16.7  T
   9    -28.1676722 -0.486565E-08  0.400E-04    2.16      60.6  T
  10    -28.1676722 -0.367038E-09  0.213E-04    2.16     114.0  T
     SCC iter.                  ...        0 min,  1.018 sec
     gradient                   ...        0 min,  0.096 sec
 * total energy  :   -27.8644228 Eh     change       -0.1687155E-01 Eh
   gradient norm :     0.0772555 Eh/α   predicted    -0.1230941E-01 ( -27.04%)
   displ. norm   :     0.3258070 α      lambda       -0.1147948E-01
   maximum displ.:     0.1746767 α      in ANC's #9, #5, #4, ...

........................................................................
.............................. CYCLE    3 ..............................
........................................................................

 iter      E             dE          RMSdq      gap      omega  full diag
   1    -28.1905034 -0.281905E+02  0.578E-01    2.29       0.0  T
   2    -28.1875240  0.297947E-02  0.734E-01    2.32       1.0  T
   3    -28.1946950 -0.717106E-02  0.176E-01    2.29       1.0  T
   4    -28.1946730  0.220160E-04  0.789E-02    2.29       1.0  T
   5    -28.1946935 -0.204553E-04  0.347E-02    2.29       1.0  T
   6    -28.1947067 -0.132827E-04  0.113E-02    2.29       2.2  T
   7    -28.1947075 -0.776163E-06  0.331E-03    2.29       7.3  T
   8    -28.1947076 -0.359364E-07  0.148E-03    2.29      16.4  T
   9    -28.1947076 -0.279640E-08  0.598E-04    2.29      40.6  T
  10    -28.1947076 -0.667040E-09  0.220E-04    2.29     110.2  T
     SCC iter.                  ...        0 min,  0.830 sec
     gradient                   ...        0 min,  0.071 sec
 * total energy  :   -27.8697574 Eh     change       -0.5334602E-02 Eh
   gradient norm :     0.0288949 Eh/α   predicted    -0.6349022E-02 (  19.02%)
   displ. norm   :     0.1380465 α      lambda       -0.1190273E-02
   maximum displ.:     0.0706557 α      in ANC's #5, #3, #4, ...

........................................................................
.............................. CYCLE    4 ..............................
........................................................................

 iter      E             dE          RMSdq      gap      omega  full diag
   1    -28.1899096 -0.281899E+02  0.143E-01    2.27       0.0  T
   2    -28.1898051  0.104589E-03  0.141E-01    2.27       1.0  T
   3    -28.1900588 -0.253695E-03  0.521E-02    2.27       1.0  T
   4    -28.1900696 -0.108686E-04  0.168E-02    2.27       1.4  T
   5    -28.1900702 -0.619026E-06  0.776E-03    2.27       3.1  T
   6    -28.1900710 -0.722234E-06  0.322E-03    2.27       7.5  T
   7    -28.1900710 -0.655941E-07  0.652E-04    2.27      37.2  T
   8    -28.1900710 -0.504382E-09  0.334E-04    2.27      72.7  T
     SCC iter.                  ...        0 min,  0.727 sec
     gradient                   ...        0 min,  0.002 sec
 * total energy  :   -27.8705599 Eh     change       -0.8025399E-03 Eh
   gradient norm :     0.0108206 Eh/α   predicted    -0.6064787E-03 ( -24.43%)
   displ. norm   :     0.1902888 α      lambda       -0.5271595E-03
   maximum displ.:     0.0978110 α      in ANC's #3, #5, #1, ...

........................................................................
.............................. CYCLE    5 ..............................
........................................................................

 iter      E             dE          RMSdq      gap      omega  full diag
   1    -28.1890951 -0.281891E+02  0.922E-02    2.27       0.0  T
   2    -28.1890944  0.688354E-06  0.540E-02    2.27       1.0  T
   3    -28.1890829  0.114957E-04  0.516E-02    2.28       1.0  T
   4    -28.1891102 -0.272615E-04  0.110E-02    2.27       2.2  T
   5    -28.1891109 -0.695581E-06  0.512E-03    2.27       4.7  T
   6    -28.1891111 -0.260792E-06  0.243E-03    2.27      10.0  T
   7    -28.1891112 -0.433864E-07  0.535E-04    2.27      45.4  T
   8    -28.1891112 -0.198472E-09  0.291E-04    2.27      83.4  T
     SCC iter.                  ...        0 min,  0.733 sec
     gradient                   ...        0 min,  0.088 sec
 * total energy  :   -27.8708905 Eh     change       -0.3305177E-03 Eh
   gradient norm :     0.0048590 Eh/α   predicted    -0.2731211E-03 ( -17.37%)
   displ. norm   :     0.1214470 α      lambda       -0.1356702E-03
   maximum displ.:     0.0795465 α      in ANC's #1, #3, #5, ...

........................................................................
.............................. CYCLE    6 ..............................
........................................................................

 iter      E             dE          RMSdq      gap      omega  full diag
   1    -28.1898776 -0.281899E+02  0.457E-02    2.28       0.0  T
   2    -28.1898757  0.189844E-05  0.284E-02    2.28       1.0  T
   3    -28.1898749  0.853608E-06  0.266E-02    2.28       1.0  T
   4    -28.1898817 -0.684727E-05  0.534E-03    2.28       4.5  T
   5    -28.1898820 -0.241452E-06  0.243E-03    2.28      10.0  T
   6    -28.1898820 -0.519091E-07  0.114E-03    2.28      21.3  T
   7    -28.1898820 -0.397907E-08  0.350E-04    2.28      69.3  T
   8    -28.1898820 -0.552127E-10  0.114E-04    2.28     213.6  T
     SCC iter.                  ...        0 min,  0.997 sec
     gradient                   ...        0 min,  0.114 sec
 * total energy  :   -27.8709924 Eh     change       -0.1019100E-03 Eh
   gradient norm :     0.0039083 Eh/α   predicted    -0.6883449E-04 ( -32.46%)
   displ. norm   :     0.1511028 α      lambda       -0.1246086E-03
   maximum displ.:     0.1033801 α      in ANC's #1, #3, #2, ...

........................................................................
.............................. CYCLE    7 ..............................
........................................................................

 iter      E             dE          RMSdq      gap      omega  full diag
   1    -28.1908918 -0.281909E+02  0.592E-02    2.29       0.0  T
   2    -28.1908923 -0.511677E-06  0.353E-02    2.29       1.0  T
   3    -28.1908910  0.135218E-05  0.309E-02    2.29       1.0  T
   4    -28.1908995 -0.851661E-05  0.969E-03    2.29       2.5  T
   5    -28.1909000 -0.479508E-06  0.380E-03    2.29       6.4  T
   6    -28.1909001 -0.133789E-06  0.212E-03    2.29      11.4  T
   7    -28.1909001 -0.202201E-07  0.444E-04    2.29      54.6  T
   8    -28.1909001 -0.194021E-09  0.236E-04    2.29     102.8  T
     SCC iter.                  ...        0 min,  0.964 sec
     gradient                   ...        0 min,  0.143 sec
 * total energy  :   -27.8710885 Eh     change       -0.9615314E-04 Eh
   gradient norm :     0.0030766 Eh/α   predicted    -0.6372601E-04 ( -33.72%)
   displ. norm   :     0.1915199 α      lambda       -0.1198049E-03
   maximum displ.:     0.1281775 α      in ANC's #1, #3, #2, ...

........................................................................
.............................. CYCLE    8 ..............................
........................................................................

 iter      E             dE          RMSdq      gap      omega  full diag
   1    -28.1912706 -0.281913E+02  0.819E-02    2.30       0.0  T
   2    -28.1912750 -0.436457E-05  0.454E-02    2.30       1.0  T
   3    -28.1912695  0.548648E-05  0.382E-02    2.30       1.0  T
   4    -28.1912819 -0.124130E-04  0.153E-02    2.30       1.6  T
   5    -28.1912837 -0.175751E-05  0.491E-03    2.30       4.9  T
   6    -28.1912838 -0.130956E-06  0.311E-03    2.30       7.8  T
   7    -28.1912839 -0.617725E-07  0.635E-04    2.30      38.2  T
   8    -28.1912839 -0.481091E-09  0.328E-04    2.30      74.0  T
     SCC iter.                  ...        0 min,  0.816 sec
     gradient                   ...        0 min,  0.205 sec
 * total energy  :   -27.8711814 Eh     change       -0.9283951E-04 Eh
   gradient norm :     0.0044915 Eh/α   predicted    -0.6209787E-04 ( -33.11%)
   displ. norm   :     0.2269091 α      lambda       -0.1163984E-03
   maximum displ.:     0.1490664 α      in ANC's #1, #3, #2, ...

........................................................................
.............................. CYCLE    9 ..............................
........................................................................

 iter      E             dE          RMSdq      gap      omega  full diag
   1    -28.1909113 -0.281909E+02  0.101E-01    2.30       0.0  T
   2    -28.1909189 -0.750655E-05  0.526E-02    2.30       1.0  T
   3    -28.1909098  0.909960E-05  0.392E-02    2.30       1.0  T
   4    -28.1909208 -0.110231E-04  0.198E-02    2.30       1.2  T
   5    -28.1909248 -0.403173E-05  0.574E-03    2.30       4.2  T
   6    -28.1909249 -0.854216E-07  0.382E-03    2.30       6.4  T
   7    -28.1909250 -0.118351E-06  0.789E-04    2.30      30.7  T
   8    -28.1909250 -0.648548E-09  0.375E-04    2.30      64.7  T
     SCC iter.                  ...        0 min,  0.974 sec
     gradient                   ...        0 min,  0.121 sec
 * total energy  :   -27.8712676 Eh     change       -0.8623614E-04 Eh
   gradient norm :     0.0069934 Eh/α   predicted    -0.6119543E-04 ( -29.04%)
   displ. norm   :     0.2060806 α      lambda       -0.1022512E-03
   maximum displ.:     0.1373412 α      in ANC's #1, #3, #2, ...

........................................................................
.............................. CYCLE   10 ..............................
........................................................................

 iter      E             dE          RMSdq      gap      omega  full diag
   1    -28.1905288 -0.281905E+02  0.918E-02    2.30       0.0  T
   2    -28.1905335 -0.465119E-05  0.464E-02    2.29       1.0  T
   3    -28.1905321  0.142486E-05  0.208E-02    2.30       1.2  T
   4    -28.1905333 -0.121539E-05  0.113E-02    2.29       2.2  T
   5    -28.1905347 -0.142630E-05  0.483E-03    2.30       5.0  T
   6    -28.1905347  0.793164E-08  0.323E-03    2.30       7.5  T
   7    -28.1905348 -0.124732E-06  0.753E-04    2.30      32.2  T
   8    -28.1905348 -0.648740E-09  0.229E-04    2.30     105.8  T
     SCC iter.                  ...        0 min,  0.911 sec
     gradient                   ...        0 min,  0.161 sec
 * total energy  :   -27.8713430 Eh     change       -0.7544202E-04 Eh
   gradient norm :     0.0075032 Eh/α   predicted    -0.5329766E-04 ( -29.35%)
   displ. norm   :     0.1757372 α      lambda       -0.1040380E-03
   maximum displ.:     0.1199533 α      in ANC's #1, #3, #2, ...

........................................................................
.............................. CYCLE   11 ..............................
........................................................................

 iter      E             dE          RMSdq      gap      omega  full diag
   1    -28.1905947 -0.281906E+02  0.773E-02    2.30       0.0  T
   2    -28.1905955 -0.843853E-06  0.413E-02    2.30       1.0  T
   3    -28.1905821  0.134181E-04  0.340E-02    2.30       1.0  T
   4    -28.1905978 -0.157381E-04  0.715E-03    2.30       3.4  T
   5    -28.1905977  0.951054E-07  0.418E-03    2.30       5.8  T
   6    -28.1905979 -0.173142E-06  0.160E-03    2.30      15.2  T
   7    -28.1905979 -0.214773E-07  0.625E-04    2.30      38.8  T
   8    -28.1905979 -0.271246E-09  0.208E-04    2.30     116.4  T
     SCC iter.                  ...        0 min,  0.797 sec
     gradient                   ...        0 min,  0.002 sec
 * total energy  :   -27.8714146 Eh     change       -0.7152001E-04 Eh
   gradient norm :     0.0045694 Eh/α   predicted    -0.5362497E-04 ( -25.02%)
   displ. norm   :     0.1149840 α      lambda       -0.4915042E-04
   maximum displ.:     0.0757421 α      in ANC's #1, #3, #2, ...

........................................................................
.............................. CYCLE   12 ..............................
........................................................................

 iter      E             dE          RMSdq      gap      omega  full diag
   1    -28.1904636 -0.281905E+02  0.477E-02    2.30       0.0  T
   2    -28.1904644 -0.823748E-06  0.255E-02    2.30       1.0  T
   3    -28.1904633  0.114254E-05  0.114E-02    2.30       2.1  T
   4    -28.1904647 -0.138108E-05  0.437E-03    2.30       5.5  T
   5    -28.1904647 -0.183064E-07  0.289E-03    2.30       8.4  T
   6    -28.1904647 -0.471779E-07  0.146E-03    2.30      16.6  T
   7    -28.1904648 -0.287675E-07  0.368E-04    2.30      65.9  T
   8    -28.1904648 -0.853504E-10  0.105E-04    2.30     231.7  T
     SCC iter.                  ...        0 min,  1.082 sec
     gradient                   ...        0 min,  0.137 sec
 * total energy  :   -27.8714472 Eh     change       -0.3260579E-04 Eh
   gradient norm :     0.0020845 Eh/α   predicted    -0.2490004E-04 ( -23.63%)
   displ. norm   :     0.0624212 α      lambda       -0.1922981E-04
   maximum displ.:     0.0411716 α      in ANC's #3, #1, #2, ...

........................................................................
.............................. CYCLE   13 ..............................
........................................................................

 iter      E             dE          RMSdq      gap      omega  full diag
   1    -28.1907863 -0.281908E+02  0.259E-02    2.30       0.0  T
   2    -28.1907865 -0.207925E-06  0.140E-02    2.30       1.7  T
   3    -28.1907856  0.920463E-06  0.882E-03    2.30       2.8  T
   4    -28.1907866 -0.104274E-05  0.295E-03    2.30       8.2  T
   5    -28.1907867 -0.376037E-07  0.139E-03    2.30      17.5  T
   6    -28.1907867 -0.765709E-08  0.789E-04    2.30      30.8  T
   7    -28.1907867 -0.719321E-08  0.195E-04    2.30     124.5  T
     SCC iter.                  ...        0 min,  0.700 sec
     gradient                   ...        0 min,  0.134 sec
 * total energy  :   -27.8714605 Eh     change       -0.1330988E-04 Eh
   gradient norm :     0.0012063 Eh/α   predicted    -0.9652558E-05 ( -27.48%)
   displ. norm   :     0.1514951 α      lambda       -0.1604600E-04
   maximum displ.:     0.1117412 α      in ANC's #3, #1, #2, ...

........................................................................
.............................. CYCLE   14 ..............................
........................................................................

 iter      E             dE          RMSdq      gap      omega  full diag
   1    -28.1901194 -0.281901E+02  0.589E-02    2.30       0.0  T
   2    -28.1901200 -0.626407E-06  0.314E-02    2.30       1.0  T
   3    -28.1901135  0.654728E-05  0.269E-02    2.30       1.0  T
   4    -28.1901222 -0.872519E-05  0.811E-03    2.30       3.0  T
   5    -28.1901225 -0.353040E-06  0.329E-03    2.30       7.4  T
   6    -28.1901226 -0.482525E-07  0.193E-03    2.30      12.6  T
   7    -28.1901226 -0.329507E-07  0.433E-04    2.30      56.0  T
   8    -28.1901226 -0.162718E-09  0.222E-04    2.30     109.2  T
     SCC iter.                  ...        0 min,  0.786 sec
     gradient                   ...        0 min,  0.205 sec
 * total energy  :   -27.8714692 Eh     change       -0.8677672E-05 Eh
   gradient norm :     0.0026556 Eh/α   predicted    -0.8106713E-05 (  -6.58%)
   displ. norm   :     0.0394227 α      lambda       -0.2245799E-04
   maximum displ.:     0.0219580 α      in ANC's #3, #6, #1, ...

........................................................................
.............................. CYCLE   15 ..............................
........................................................................

 iter      E             dE          RMSdq      gap      omega  full diag
   1    -28.1913270 -0.281913E+02  0.212E-02    2.30       0.0  T
   2    -28.1913273 -0.388999E-06  0.113E-02    2.30       2.1  T
   3    -28.1913273  0.130397E-07  0.428E-03    2.30       5.7  T
   4    -28.1913273 -0.101649E-07  0.210E-03    2.30      11.6  T
   5    -28.1913274 -0.472151E-07  0.855E-04    2.30      28.4  T
   6    -28.1913274 -0.310010E-09  0.483E-04    2.30      50.2  T
     SCC iter.                  ...        0 min,  0.661 sec
     gradient                   ...        0 min,  0.160 sec
 * total energy  :   -27.8714829 Eh     change       -0.1371376E-04 Eh
   gradient norm :     0.0025957 Eh/α   predicted    -0.1124736E-04 ( -17.98%)
   displ. norm   :     0.0567021 α      lambda       -0.2012142E-04
   maximum displ.:     0.0470917 α      in ANC's #3, #4, #6, ...

........................................................................
.............................. CYCLE   16 ..............................
........................................................................

 iter      E             dE          RMSdq      gap      omega  full diag
   1    -28.1916568 -0.281917E+02  0.198E-02    2.30       0.0  T
   2    -28.1916569 -0.147644E-06  0.106E-02    2.30       2.3  T
   3    -28.1916569  0.533786E-07  0.381E-03    2.30       6.4  T
   4    -28.1916569 -0.321816E-07  0.220E-03    2.30      11.0  T
   5    -28.1916570 -0.475124E-07  0.993E-04    2.30      24.4  T
   6    -28.1916570 -0.358732E-08  0.529E-04    2.30      45.9  T
     SCC iter.                  ...        0 min,  1.529 sec
     gradient                   ...        0 min,  0.153 sec
 * total energy  :   -27.8715013 Eh     change       -0.1838928E-04 Eh
   gradient norm :     0.0022971 Eh/α   predicted    -0.1009385E-04 ( -45.11%)
   displ. norm   :     0.4374584 α      lambda       -0.1311245E-03
   maximum displ.:     0.3694571 α      in ANC's #3, #4, #6, ...

........................................................................
.............................. CYCLE   17 ..............................
........................................................................

 iter      E             dE          RMSdq      gap      omega  full diag
   1    -28.1895683 -0.281896E+02  0.148E-01    2.30       0.0  T
   2    -28.1895750 -0.678502E-05  0.808E-02    2.30       1.0  T
   3    -28.1895739  0.116266E-05  0.240E-02    2.30       1.0  T
   4    -28.1895742 -0.373907E-06  0.143E-02    2.30       1.7  T
   5    -28.1895760 -0.175040E-05  0.633E-03    2.30       3.8  T
   6    -28.1895762 -0.192763E-06  0.287E-03    2.30       8.5  T
   7    -28.1895763 -0.114421E-06  0.999E-04    2.30      24.3  T
   8    -28.1895763 -0.329184E-08  0.420E-04    2.30      57.8  T
     SCC iter.                  ...        0 min,  0.938 sec
     gradient                   ...        0 min,  0.190 sec
 * total energy  :   -27.8715622 Eh     change       -0.6095038E-04 Eh
   gradient norm :     0.0069168 Eh/α   predicted    -0.7810370E-04 (  28.14%)
   displ. norm   :     0.1073766 α      lambda       -0.1073651E-03
   maximum displ.:     0.0738341 α      in ANC's #3, #1, #2, ...

........................................................................
.............................. CYCLE   18 ..............................
........................................................................

 iter      E             dE          RMSdq      gap      omega  full diag
   1    -28.1911108 -0.281911E+02  0.469E-02    2.29       0.0  T
   2    -28.1911120 -0.114339E-05  0.251E-02    2.30       1.0  T
   3    -28.1911094  0.258501E-05  0.162E-02    2.29       1.5  T
   4    -28.1911121 -0.276800E-05  0.691E-03    2.30       3.5  T
   5    -28.1911125 -0.394908E-06  0.243E-03    2.30      10.0  T
   6    -28.1911125 -0.212124E-08  0.150E-03    2.30      16.2  T
   7    -28.1911126 -0.268151E-07  0.360E-04    2.30      67.4  T
   8    -28.1911126 -0.113975E-09  0.163E-04    2.30     148.9  T
     SCC iter.                  ...        0 min,  0.896 sec
     gradient                   ...        0 min,  0.199 sec
 * total energy  :   -27.8716122 Eh     change       -0.5003484E-04 Eh
   gradient norm :     0.0023970 Eh/α   predicted    -0.5430140E-04 (   8.53%)
   displ. norm   :     0.2213760 α      lambda       -0.7986622E-04
   maximum displ.:     0.1705633 α      in ANC's #3, #4, #1, ...

........................................................................
.............................. CYCLE   19 ..............................
........................................................................

 iter      E             dE          RMSdq      gap      omega  full diag
   1    -28.1900662 -0.281901E+02  0.714E-02    2.29       0.0  T
   2    -28.1900667 -0.518851E-06  0.411E-02    2.29       1.0  T
   3    -28.1900613  0.541634E-05  0.201E-02    2.29       1.2  T
   4    -28.1900672 -0.584909E-05  0.496E-03    2.29       4.9  T
   5    -28.1900673 -0.121735E-06  0.290E-03    2.29       8.4  T
   6    -28.1900674 -0.976716E-07  0.775E-04    2.29      31.3  T
   7    -28.1900674 -0.420321E-08  0.252E-04    2.29      96.3  T
     SCC iter.                  ...        0 min,  0.699 sec
     gradient                   ...        0 min,  0.227 sec
 * total energy  :   -27.8716880 Eh     change       -0.7570482E-04 Eh
   gradient norm :     0.0034511 Eh/α   predicted    -0.4188886E-04 ( -44.67%)
   displ. norm   :     0.7132662 α      lambda       -0.2747587E-03
   maximum displ.:     0.5474777 α      in ANC's #3, #4, #1, ...

........................................................................
.............................. CYCLE   20 ..............................
........................................................................

 iter      E             dE          RMSdq      gap      omega  full diag
   1    -28.1795488 -0.281795E+02  0.241E-01    2.28       0.0  T
   2    -28.1795674 -0.185422E-04  0.138E-01    2.29       1.0  T
   3    -28.1795283  0.391202E-04  0.557E-02    2.28       1.0  T
   4    -28.1795675 -0.392785E-04  0.219E-02    2.29       1.1  T
   5    -28.1795728 -0.522878E-05  0.763E-03    2.29       3.2  T
   6    -28.1795730 -0.180159E-06  0.448E-03    2.29       5.4  T
   7    -28.1795732 -0.244351E-06  0.873E-04    2.29      27.8  T
   8    -28.1795732 -0.345874E-09  0.320E-04    2.29      75.7  T
     SCC iter.                  ...        0 min,  0.858 sec
     gradient                   ...        0 min,  0.203 sec
 * total energy  :   -27.8713456 Eh     change        0.3423767E-03 Eh
   gradient norm :     0.0212322 Eh/α   predicted    -0.2072929E-03 (-160.55%)
   displ. norm   :     0.3756086 α      lambda       -0.1302060E-02
   maximum displ.:     0.3199059 α      in ANC's #3, #4, #6, ...
 * RMSD in coord.:     0.5380271 α      energy gain  -0.2379432E-01 Eh

generating ANC from exact Hessian ...
Using Lindh-Hessian (1995)
 Shifting diagonal of input Hessian by    6.6555833821595658E-003
 Lowest  eigenvalues of input Hessian
    0.000000    0.000000    0.000000    0.000000    0.000000    0.000000
    0.010000    0.014481    0.017358    0.018986    0.022042    0.027008
    0.029414    0.035835    0.039405    0.061352    0.073250    0.075995
 Highest eigenvalues
    1.410844    1.492546    1.843119    2.073520    2.258144    2.504275


........................................................................
.............................. CYCLE   21 ..............................
........................................................................

 iter      E             dE          RMSdq      gap      omega  full diag
   1    -28.1901700 -0.281902E+02  0.148E-01    2.30       0.0  T
   2    -28.1901857 -0.156725E-04  0.810E-02    2.30       1.0  T
   3    -28.1901677  0.179140E-04  0.445E-02    2.29       1.0  T
   4    -28.1901830 -0.152467E-04  0.228E-02    2.30       1.1  T
   5    -28.1901893 -0.632256E-05  0.518E-03    2.30       4.7  T
   6    -28.1901893  0.388569E-07  0.222E-03    2.30      10.9  T
   7    -28.1901893 -0.705832E-07  0.825E-04    2.30      29.4  T
   8    -28.1901894 -0.397373E-08  0.329E-04    2.30      73.7  T
     SCC iter.                  ...        0 min,  2.128 sec
     gradient                   ...        0 min,  0.187 sec
 * total energy  :   -27.8718271 Eh     change       -0.4814947E-03 Eh
   gradient norm :     0.0040080 Eh/α   predicted     0.0000000E+00 (-100.00%)
   displ. norm   :     0.0347552 α      lambda       -0.4330299E-04
   maximum displ.:     0.0239656 α      in ANC's #2, #3, #8, ...

........................................................................
.............................. CYCLE   22 ..............................
........................................................................

 iter      E             dE          RMSdq      gap      omega  full diag
   1    -28.1912919 -0.281913E+02  0.184E-02    2.30       0.0  T
   2    -28.1912921 -0.199165E-06  0.123E-02    2.30       2.0  T
   3    -28.1912923 -0.132145E-06  0.930E-03    2.30       2.6  T
   4    -28.1912930 -0.704938E-06  0.301E-03    2.30       8.1  T
   5    -28.1912930 -0.561525E-07  0.131E-03    2.30      18.5  T
   6    -28.1912930 -0.183100E-07  0.543E-04    2.30      44.6  T
   7    -28.1912930 -0.126628E-08  0.110E-04    2.30     221.3  T
     SCC iter.                  ...        0 min,  0.858 sec
     gradient                   ...        0 min,  0.164 sec
 * total energy  :   -27.8718604 Eh     change       -0.3334325E-04 Eh
   gradient norm :     0.0016932 Eh/α   predicted    -0.2167772E-04 ( -34.99%)
   displ. norm   :     0.1301337 α      lambda       -0.5291183E-04
   maximum displ.:     0.0985445 α      in ANC's #2, #3, #5, ...

........................................................................
.............................. CYCLE   23 ..............................
........................................................................

 iter      E             dE          RMSdq      gap      omega  full diag
   1    -28.1926901 -0.281927E+02  0.522E-02    2.31       0.0  T
   2    -28.1926901 -0.447751E-07  0.331E-02    2.31       1.0  T
   3    -28.1926898  0.315088E-06  0.271E-02    2.31       1.0  T
   4    -28.1926965 -0.672901E-05  0.755E-03    2.31       3.2  T
   5    -28.1926968 -0.261784E-06  0.310E-03    2.31       7.8  T
   6    -28.1926969 -0.481928E-07  0.177E-03    2.31      13.7  T
   7    -28.1926969 -0.262460E-07  0.349E-04    2.31      69.5  T
   8    -28.1926969 -0.106667E-09  0.210E-04    2.31     115.7  T
     SCC iter.                  ...        0 min,  0.900 sec
     gradient                   ...        0 min,  0.203 sec
 * total energy  :   -27.8719100 Eh     change       -0.4961043E-04 Eh
   gradient norm :     0.0033889 Eh/α   predicted    -0.2665519E-04 ( -46.27%)
   displ. norm   :     0.1126806 α      lambda       -0.4950404E-04
   maximum displ.:     0.0901475 α      in ANC's #2, #3, #4, ...

........................................................................
.............................. CYCLE   24 ..............................
........................................................................

 iter      E             dE          RMSdq      gap      omega  full diag
   1    -28.1925260 -0.281925E+02  0.393E-02    2.31       0.0  T
   2    -28.1925259  0.103718E-06  0.228E-02    2.31       1.1  T
   3    -28.1925236  0.238055E-05  0.207E-02    2.31       1.2  T
   4    -28.1925281 -0.456109E-05  0.514E-03    2.31       4.7  T
   5    -28.1925283 -0.128464E-06  0.178E-03    2.31      13.6  T
   6    -28.1925282  0.571264E-08  0.980E-04    2.31      24.7  T
   7    -28.1925283 -0.128634E-07  0.255E-04    2.31      95.0  T
     SCC iter.                  ...        0 min,  0.715 sec
     gradient                   ...        0 min,  0.212 sec
 * total energy  :   -27.8719586 Eh     change       -0.4855520E-04 Eh
   gradient norm :     0.0039684 Eh/α   predicted    -0.2506497E-04 ( -48.38%)
   displ. norm   :     0.2060174 α      lambda       -0.1080241E-03
   maximum displ.:     0.1553587 α      in ANC's #2, #3, #4, ...

........................................................................
.............................. CYCLE   25 ..............................
........................................................................

 iter      E             dE          RMSdq      gap      omega  full diag
   1    -28.1910023 -0.281910E+02  0.736E-02    2.30       0.0  T
   2    -28.1910025 -0.194267E-06  0.419E-02    2.30       1.0  T
   3    -28.1909927  0.982126E-05  0.384E-02    2.30       1.0  T
   4    -28.1910087 -0.160354E-04  0.946E-03    2.30       2.6  T
   5    -28.1910092 -0.477325E-06  0.310E-03    2.30       7.8  T
   6    -28.1910092 -0.899274E-09  0.812E-04    2.30      29.9  T
   7    -28.1910092 -0.348649E-08  0.490E-04    2.30      49.5  T
     SCC iter.                  ...        0 min,  0.722 sec
     gradient                   ...        0 min,  0.140 sec
 * total energy  :   -27.8720497 Eh     change       -0.9111050E-04 Eh
   gradient norm :     0.0051563 Eh/α   predicted    -0.5630293E-04 ( -38.20%)
   displ. norm   :     0.3466334 α      lambda       -0.1444580E-03
   maximum displ.:     0.2550057 α      in ANC's #2, #3, #4, ...

........................................................................
.............................. CYCLE   26 ..............................
........................................................................

 iter      E             dE          RMSdq      gap      omega  full diag
   1    -28.1868065 -0.281868E+02  0.126E-01    2.29       0.0  T
   2    -28.1868091 -0.253911E-05  0.722E-02    2.29       1.0  T
   3    -28.1867801  0.289289E-04  0.658E-02    2.29       1.0  T
   4    -28.1868271 -0.469494E-04  0.164E-02    2.29       1.5  T
   5    -28.1868286 -0.147687E-05  0.518E-03    2.29       4.7  T
   6    -28.1868286 -0.887368E-08  0.105E-03    2.29      23.1  T
   7    -28.1868286 -0.216535E-08  0.655E-04    2.29      37.0  T
   8    -28.1868286 -0.321851E-09  0.196E-04    2.29     123.6  T
     SCC iter.                  ...        0 min,  0.932 sec
     gradient                   ...        0 min,  0.187 sec
 * total energy  :   -27.8720347 Eh     change        0.1495635E-04 Eh
   gradient norm :     0.0134233 Eh/α   predicted    -0.8090384E-04 (-640.93%)
   displ. norm   :     0.1562352 α      lambda       -0.2480901E-03
   maximum displ.:     0.1247561 α      in ANC's #2, #3, #4, ...

........................................................................
.............................. CYCLE   27 ..............................
........................................................................

 iter      E             dE          RMSdq      gap      omega  full diag
   1    -28.1900379 -0.281900E+02  0.633E-02    2.29       0.0  T
   2    -28.1900401 -0.228967E-05  0.371E-02    2.29       1.0  T
   3    -28.1900337  0.639709E-05  0.329E-02    2.29       1.0  T
   4    -28.1900449 -0.111805E-04  0.890E-03    2.29       2.7  T
   5    -28.1900454 -0.477759E-06  0.241E-03    2.29      10.1  T
   6    -28.1900454  0.985229E-08  0.110E-03    2.29      22.1  T
   7    -28.1900454 -0.153252E-07  0.395E-04    2.29      61.4  T
   8    -28.1900454 -0.105078E-08  0.209E-04    2.29     116.0  T
     SCC iter.                  ...        0 min,  0.863 sec
     gradient                   ...        0 min,  0.184 sec
 * total energy  :   -27.8721535 Eh     change       -0.1187785E-03 Eh
   gradient norm :     0.0056615 Eh/α   predicted    -0.1270707E-03 (   6.98%)
   displ. norm   :     0.0736736 α      lambda       -0.6133824E-04
   maximum displ.:     0.0419077 α      in ANC's #3, #2, #4, ...

........................................................................
.............................. CYCLE   28 ..............................
........................................................................

 iter      E             dE          RMSdq      gap      omega  full diag
   1    -28.1904063 -0.281904E+02  0.286E-02    2.29       0.0  T
   2    -28.1904064 -0.112883E-06  0.160E-02    2.29       1.5  T
   3    -28.1904051  0.128285E-05  0.100E-02    2.29       2.4  T
   4    -28.1904065 -0.137994E-05  0.283E-03    2.29       8.6  T
   5    -28.1904065 -0.603566E-07  0.810E-04    2.29      30.0  T
   6    -28.1904065 -0.598618E-09  0.311E-04    2.29      78.0  T
     SCC iter.                  ...        0 min,  2.287 sec
     gradient                   ...        0 min,  0.182 sec
 * total energy  :   -27.8722094 Eh     change       -0.5593064E-04 Eh
   gradient norm :     0.0047871 Eh/α   predicted    -0.3083552E-04 ( -44.87%)
   displ. norm   :     0.4380602 α      lambda       -0.2890986E-03
   maximum displ.:     0.2625005 α      in ANC's #2, #3, #4, ...

........................................................................
.............................. CYCLE   29 ..............................
........................................................................

 iter      E             dE          RMSdq      gap      omega  full diag
   1    -28.1887412 -0.281887E+02  0.158E-01    2.30       0.0  T
   2    -28.1887430 -0.181186E-05  0.896E-02    2.30       1.0  T
   3    -28.1887022  0.407518E-04  0.557E-02    2.30       1.0  T
   4    -28.1887463 -0.440203E-04  0.140E-02    2.30       1.7  T
   5    -28.1887475 -0.123799E-05  0.443E-03    2.30       5.5  T
   6    -28.1887475 -0.375133E-07  0.240E-03    2.30      10.1  T
   7    -28.1887476 -0.669200E-07  0.866E-04    2.30      28.0  T
   8    -28.1887476 -0.781579E-09  0.327E-04    2.30      74.1  T
     SCC iter.                  ...        0 min,  0.808 sec
     gradient                   ...        0 min,  0.207 sec
 * total energy  :   -27.8724029 Eh     change       -0.1934959E-03 Eh
   gradient norm :     0.0073999 Eh/α   predicted    -0.1722855E-03 ( -10.96%)
   displ. norm   :     0.1458062 α      lambda       -0.1198097E-03
   maximum displ.:     0.0772607 α      in ANC's #2, #3, #4, ...

........................................................................
.............................. CYCLE   30 ..............................
........................................................................

 iter      E             dE          RMSdq      gap      omega  full diag
   1    -28.1901197 -0.281901E+02  0.526E-02    2.30       0.0  T
   2    -28.1901202 -0.501586E-06  0.310E-02    2.30       1.0  T
   3    -28.1901140  0.625255E-05  0.227E-02    2.30       1.1  T
   4    -28.1901209 -0.693895E-05  0.465E-03    2.30       5.2  T
   5    -28.1901210 -0.134296E-06  0.200E-03    2.30      12.1  T
   6    -28.1901210  0.623949E-09  0.120E-03    2.30      20.3  T
   7    -28.1901211 -0.209653E-07  0.268E-04    2.30      90.7  T
   8    -28.1901211 -0.550280E-10  0.122E-04    2.30     198.8  T
     SCC iter.                  ...        0 min,  0.927 sec
     gradient                   ...        0 min,  0.156 sec
 * total energy  :   -27.8724980 Eh     change       -0.9501920E-04 Eh
   gradient norm :     0.0051943 Eh/α   predicted    -0.6117834E-04 ( -35.61%)
   displ. norm   :     0.2182339 α      lambda       -0.1529204E-03
   maximum displ.:     0.1213703 α      in ANC's #2, #3, #4, ...

........................................................................
.............................. CYCLE   31 ..............................
........................................................................

 iter      E             dE          RMSdq      gap      omega  full diag
   1    -28.1916567 -0.281917E+02  0.731E-02    2.32       0.0  T
   2    -28.1916576 -0.877430E-06  0.419E-02    2.32       1.0  T
   3    -28.1916483  0.933334E-05  0.274E-02    2.31       1.0  T
   4    -28.1916585 -0.102212E-04  0.616E-03    2.32       3.9  T
   5    -28.1916587 -0.193579E-06  0.242E-03    2.32      10.0  T
   6    -28.1916587 -0.923547E-08  0.757E-04    2.32      32.0  T
   7    -28.1916587 -0.405540E-08  0.392E-04    2.32      61.8  T
     SCC iter.                  ...        0 min,  0.685 sec
     gradient                   ...        0 min,  0.143 sec
 * total energy  :   -27.8726130 Eh     change       -0.1149987E-03 Eh
   gradient norm :     0.0036287 Eh/α   predicted    -0.8010279E-04 ( -30.34%)
   displ. norm   :     0.3422790 α      lambda       -0.1358113E-03
   maximum displ.:     0.1967752 α      in ANC's #2, #3, #4, ...

........................................................................
.............................. CYCLE   32 ..............................
........................................................................

 iter      E             dE          RMSdq      gap      omega  full diag
   1    -28.1891597 -0.281892E+02  0.112E-01    2.32       0.0  T
   2    -28.1891624 -0.272333E-05  0.626E-02    2.32       1.0  T
   3    -28.1891573  0.515703E-05  0.227E-02    2.32       1.1  T
   4    -28.1891615 -0.427781E-05  0.129E-02    2.32       1.9  T
   5    -28.1891633 -0.177442E-05  0.328E-03    2.32       7.4  T
   6    -28.1891633 -0.517825E-08  0.136E-03    2.32      17.8  T
   7    -28.1891633 -0.265936E-07  0.588E-04    2.32      41.2  T
   8    -28.1891633 -0.670315E-09  0.180E-04    2.32     135.0  T
     SCC iter.                  ...        0 min,  0.865 sec
     gradient                   ...        0 min,  0.208 sec
 * total energy  :   -27.8726569 Eh     change       -0.4399032E-04 Eh
   gradient norm :     0.0088037 Eh/α   predicted    -0.7586180E-04 (  72.45%)
   displ. norm   :     0.2071225 α      lambda       -0.3575619E-03
   maximum displ.:     0.0977923 α      in ANC's #3, #2, #7, ...

........................................................................
.............................. CYCLE   33 ..............................
........................................................................

 iter      E             dE          RMSdq      gap      omega  full diag
   1    -28.1949425 -0.281949E+02  0.964E-02    2.33       0.0  T
   2    -28.1949492 -0.664250E-05  0.515E-02    2.33       1.0  T
   3    -28.1949408  0.840711E-05  0.299E-02    2.33       1.0  T
   4    -28.1949497 -0.892191E-05  0.114E-02    2.33       2.1  T
   5    -28.1949510 -0.127903E-05  0.445E-03    2.33       5.5  T
   6    -28.1949510 -0.617598E-07  0.240E-03    2.33      10.1  T
   7    -28.1949511 -0.824628E-07  0.507E-04    2.33      47.8  T
   8    -28.1949511 -0.516177E-09  0.175E-04    2.33     138.3  T
     SCC iter.                  ...        0 min,  0.802 sec
     gradient                   ...        0 min,  0.144 sec
 * total energy  :   -27.8727507 Eh     change       -0.9376923E-04 Eh
   gradient norm :     0.0076438 Eh/α   predicted    -0.1864507E-03 (  98.84%)
   displ. norm   :     0.1896244 α      lambda       -0.1286296E-03
   maximum displ.:     0.1180576 α      in ANC's #2, #3, #4, ...

........................................................................
.............................. CYCLE   34 ..............................
........................................................................

 iter      E             dE          RMSdq      gap      omega  full diag
   1    -28.1917659 -0.281918E+02  0.667E-02    2.33       0.0  T
   2    -28.1917682 -0.230451E-05  0.385E-02    2.32       1.0  T
   3    -28.1917585  0.973704E-05  0.310E-02    2.33       1.0  T
   4    -28.1917701 -0.116151E-04  0.813E-03    2.32       3.0  T
   5    -28.1917707 -0.559112E-06  0.232E-03    2.33      10.5  T
   6    -28.1917706  0.107521E-07  0.110E-03    2.33      22.0  T
   7    -28.1917707 -0.178237E-07  0.351E-04    2.33      69.0  T
   8    -28.1917707 -0.664336E-09  0.166E-04    2.33     146.2  T
     SCC iter.                  ...        0 min,  0.890 sec
     gradient                   ...        0 min,  0.174 sec
 * total energy  :   -27.8728039 Eh     change       -0.5316065E-04 Eh
   gradient norm :     0.0065609 Eh/α   predicted    -0.6662612E-04 (  25.33%)
   displ. norm   :     0.0933813 α      lambda       -0.6013001E-04
   maximum displ.:     0.0514923 α      in ANC's #3, #2, #4, ...

........................................................................
.............................. CYCLE   35 ..............................
........................................................................

 iter      E             dE          RMSdq      gap      omega  full diag
   1    -28.1927417 -0.281927E+02  0.384E-02    2.32       0.0  T
   2    -28.1927423 -0.564180E-06  0.210E-02    2.32       1.2  T
   3    -28.1927403  0.198431E-05  0.138E-02    2.32       1.8  T
   4    -28.1927425 -0.215693E-05  0.443E-03    2.32       5.5  T
   5    -28.1927427 -0.198014E-06  0.159E-03    2.32      15.2  T
   6    -28.1927427  0.201987E-08  0.758E-04    2.32      32.0  T
   7    -28.1927427 -0.923585E-08  0.186E-04    2.32     130.5  T
     SCC iter.                  ...        0 min,  0.731 sec
     gradient                   ...        0 min,  0.162 sec
 * total energy  :   -27.8728366 Eh     change       -0.3271904E-04 Eh
   gradient norm :     0.0034997 Eh/α   predicted    -0.3032622E-04 (  -7.31%)
   displ. norm   :     0.0742646 α      lambda       -0.3533627E-04
   maximum displ.:     0.0413249 α      in ANC's #3, #4, #2, ...

........................................................................
.............................. CYCLE   36 ..............................
........................................................................

 iter      E             dE          RMSdq      gap      omega  full diag
   1    -28.1922252 -0.281922E+02  0.276E-02    2.32       0.0  T
   2    -28.1922252 -0.443328E-07  0.170E-02    2.32       1.4  T
   3    -28.1922245  0.706618E-06  0.152E-02    2.32       1.6  T
   4    -28.1922266 -0.210798E-05  0.333E-03    2.32       7.3  T
   5    -28.1922267 -0.828612E-07  0.735E-04    2.32      33.0  T
   6    -28.1922267  0.559567E-09  0.343E-04    2.32      70.7  T
     SCC iter.                  ...        0 min,  4.685 sec
     gradient                   ...        0 min,  0.194 sec
 * total energy  :   -27.8728601 Eh     change       -0.2354377E-04 Eh
   gradient norm :     0.0022957 Eh/α   predicted    -0.1776568E-04 ( -24.54%)
   displ. norm   :     0.1738097 α      lambda       -0.5325407E-04
   maximum displ.:     0.0976796 α      in ANC's #2, #3, #1, ...

........................................................................
.............................. CYCLE   37 ..............................
........................................................................

 iter      E             dE          RMSdq      gap      omega  full diag
   1    -28.1920401 -0.281920E+02  0.570E-02    2.31       0.0  T
   2    -28.1920393  0.792772E-06  0.356E-02    2.31       1.0  T
   3    -28.1920344  0.491665E-05  0.325E-02    2.31       1.0  T
   4    -28.1920452 -0.108033E-04  0.528E-03    2.31       4.6  T
   5    -28.1920453 -0.145057E-06  0.175E-03    2.31      13.9  T
   6    -28.1920453  0.103526E-08  0.527E-04    2.31      46.1  T
   7    -28.1920453 -0.255586E-08  0.295E-04    2.31      82.2  T
     SCC iter.                  ...        0 min,  0.767 sec
     gradient                   ...        0 min,  0.201 sec
 * total energy  :   -27.8728893 Eh     change       -0.2911127E-04 Eh
   gradient norm :     0.0028728 Eh/α   predicted    -0.2742960E-04 (  -5.78%)
   displ. norm   :     0.0676677 α      lambda       -0.1813886E-04
   maximum displ.:     0.0302868 α      in ANC's #2, #3, #4, ...

........................................................................
.............................. CYCLE   38 ..............................
........................................................................

 iter      E             dE          RMSdq      gap      omega  full diag
   1    -28.1924771 -0.281925E+02  0.239E-02    2.31       0.0  T
   2    -28.1924771  0.169771E-07  0.143E-02    2.31       1.7  T
   3    -28.1924752  0.182978E-05  0.128E-02    2.31       1.9  T
   4    -28.1924775 -0.222797E-05  0.157E-03    2.31      15.4  T
   5    -28.1924775 -0.136327E-07  0.597E-04    2.31      40.6  T
   6    -28.1924775 -0.462563E-11  0.261E-04    2.31      92.8  T
     SCC iter.                  ...        0 min,  0.600 sec
     gradient                   ...        0 min,  0.165 sec
 * total energy  :   -27.8729024 Eh     change       -0.1319673E-04 Eh
   gradient norm :     0.0019767 Eh/α   predicted    -0.9111482E-05 ( -30.96%)
   displ. norm   :     0.1246211 α      lambda       -0.1663924E-04
   maximum displ.:     0.0611188 α      in ANC's #2, #1, #3, ...

........................................................................
.............................. CYCLE   39 ..............................
........................................................................

 iter      E             dE          RMSdq      gap      omega  full diag
   1    -28.1935601 -0.281936E+02  0.447E-02    2.32       0.0  T
   2    -28.1935604 -0.370012E-06  0.266E-02    2.32       1.0  T
   3    -28.1935556  0.485966E-05  0.201E-02    2.32       1.2  T
   4    -28.1935610 -0.542364E-05  0.390E-03    2.32       6.2  T
   5    -28.1935612 -0.179911E-06  0.980E-04    2.32      24.7  T
   6    -28.1935612  0.241506E-09  0.437E-04    2.32      55.5  T
     SCC iter.                  ...        0 min,  0.382 sec
     gradient                   ...        0 min,  0.002 sec
 * total energy  :   -27.8729132 Eh     change       -0.1074920E-04 Eh
   gradient norm :     0.0017214 Eh/α   predicted    -0.8375819E-05 ( -22.08%)
   displ. norm   :     0.0922657 α      lambda       -0.8370819E-05
   maximum displ.:     0.0456611 α      in ANC's #2, #4, #1, ...

........................................................................
.............................. CYCLE   40 ..............................
........................................................................

 iter      E             dE          RMSdq      gap      omega  full diag
   1    -28.1928794 -0.281929E+02  0.300E-02    2.32       0.0  T
   2    -28.1928795 -0.983705E-07  0.177E-02    2.32       1.4  T
   3    -28.1928776  0.187351E-05  0.118E-02    2.32       2.1  T
   4    -28.1928796 -0.204139E-05  0.162E-03    2.32      14.9  T
   5    -28.1928796 -0.213318E-07  0.627E-04    2.32      38.7  T
   6    -28.1928796  0.131237E-10  0.384E-04    2.32      63.2  T
     SCC iter.                  ...        0 min,  0.482 sec
     gradient                   ...        0 min,  0.006 sec
 * total energy  :   -27.8729140 Eh     change       -0.8476354E-06 Eh
   gradient norm :     0.0021009 Eh/α   predicted    -0.4201054E-05 ( 395.62%)
   displ. norm   :     0.0507480 α      lambda       -0.1013299E-04
   maximum displ.:     0.0291050 α      in ANC's #3, #2, #4, ...

........................................................................
.............................. CYCLE   41 ..............................
........................................................................

 iter      E             dE          RMSdq      gap      omega  full diag
   1    -28.1935466 -0.281935E+02  0.190E-02    2.32       0.0  T
   2    -28.1935466 -0.175852E-07  0.116E-02    2.32       2.1  T
   3    -28.1935457  0.949134E-06  0.106E-02    2.32       2.3  T
   4    -28.1935471 -0.138633E-05  0.161E-03    2.32      15.0  T
   5    -28.1935471 -0.828298E-08  0.621E-04    2.32      39.1  T
   6    -28.1935471 -0.199375E-09  0.127E-04    2.32     190.8  T
     SCC iter.                  ...        0 min,  0.421 sec
     gradient                   ...        0 min,  0.084 sec
 * total energy  :   -27.8729179 Eh     change       -0.3809952E-05 Eh
   gradient norm :     0.0016900 Eh/α   predicted    -0.5077872E-05 (  33.28%)
   displ. norm   :     0.0153694 α      lambda       -0.8054048E-05
   maximum displ.:     0.0077281 α      in ANC's #1, #2, #12, ...

........................................................................
.............................. CYCLE   42 ..............................
........................................................................

 iter      E             dE          RMSdq      gap      omega  full diag
   1    -28.1928907 -0.281929E+02  0.133E-02    2.31       0.0  T
   2    -28.1928907 -0.349102E-07  0.787E-03    2.31       3.1  T
   3    -28.1928903  0.457929E-06  0.716E-03    2.31       3.4  T
   4    -28.1928909 -0.618877E-06  0.121E-03    2.31      20.0  T
   5    -28.1928909 -0.106062E-07  0.551E-04    2.31      44.0  T
   6    -28.1928909 -0.999247E-09  0.288E-04    2.31      84.1  T
     SCC iter.                  ...        0 min,  0.556 sec
     gradient                   ...        0 min,  0.132 sec
 * total energy  :   -27.8729190 Eh     change       -0.1152234E-05 Eh
   gradient norm :     0.0017096 Eh/α   predicted    -0.4026577E-05 ( 249.46%)
   displ. norm   :     0.0175734 α      lambda       -0.4193430E-05
   maximum displ.:     0.0126834 α      in ANC's #1, #2, #4, ...
 * RMSD in coord.:     0.6244336 α      energy gain  -0.1573431E-02 Eh

generating ANC from exact Hessian ...
Using Lindh-Hessian (1995)
 Shifting diagonal of input Hessian by    6.5938121258030356E-003
 Lowest  eigenvalues of input Hessian
    0.000000    0.000000    0.000000    0.000000    0.000000    0.000000
    0.010000    0.014537    0.017446    0.019179    0.022499    0.027112
    0.029509    0.036733    0.040202    0.062312    0.073428    0.076551
 Highest eigenvalues
    1.420942    1.497975    1.852717    2.081776    2.263510    2.499651


........................................................................
.............................. CYCLE   43 ..............................
........................................................................

 iter      E             dE          RMSdq      gap      omega  full diag
   1    -28.1931824 -0.281932E+02  0.747E-03    2.32       0.0  T
   2    -28.1931824 -0.158120E-07  0.451E-03    2.32       5.4  T
   3    -28.1931823  0.131222E-06  0.342E-03    2.32       7.1  T
   4    -28.1931824 -0.149513E-06  0.828E-04    2.32      29.3  T
   5    -28.1931824 -0.837518E-08  0.184E-04    2.32     132.0  T
     SCC iter.                  ...        0 min,  0.556 sec
     gradient                   ...        0 min,  0.168 sec
 * total energy  :   -27.8729227 Eh     change       -0.3693380E-05 Eh
   gradient norm :     0.0005987 Eh/α   predicted     0.0000000E+00 (-100.00%)
   displ. norm   :     0.0181725 α      lambda       -0.2943886E-05
   maximum displ.:     0.0153246 α      in ANC's #2, #3, #4, ...

   *** GEOMETRY OPTIMIZATION CONVERGED AFTER 43 ITERATIONS ***

------------------------------------------------------------------------
 total energy gain   :        -0.0253714 Eh      -15.9208 kcal/mol
 total RMSD          :         1.0487930 a0        0.5550 Å
 total power (kW/mol):        -1.5491331 (step)   -1.2854 (real)
------------------------------------------------------------------------

 ANCopt (total)                0 d,  0 h,  0 min, 51.821 sec
 optimizer setup                ...        0 min,  0.000 sec (  0.001%)
 model hessian                  ...        0 min,  0.006 sec (  0.012%)
 ANC generation                 ...        0 min,  0.006 sec (  0.011%)
 coordinate transformation      ...        0 min,  0.000 sec (  0.001%)
 single point calculation       ...        0 min, 51.192 sec ( 98.786%)
 optimization log               ...        0 min,  0.022 sec (  0.043%)
 hessian update                 ...        0 min,  0.548 sec (  1.057%)
 rational function              ...        0 min,  0.031 sec (  0.061%)

================
 final structure:
================
17
 xtb: 6.7.1 (edcfbbe)
C           -2.93223088294705        0.37333654825497       -0.35661776804143
C           -1.50403206250275        0.07124739477803       -0.09260749850660
C           -0.78831388419586       -0.93272525740407       -0.62511098337591
C            0.60988826326218       -1.06028298330631       -0.41862991829061
N            1.32601763522314       -0.05840877552064        0.04691135839402
C            2.77543705305620       -0.15034718669739        0.06658026493339
N            0.86448047934542        1.07162387954226        0.49030508100634
S           -0.68008031590315        1.11327953553212        1.16082572315157
O           -0.65434174734510        0.24188087259214        2.34111860125740
H           -3.03826236482916        1.40823980730159       -0.68257035741145
H           -3.51051016298766        0.25873985204690        0.56104492423827
H           -3.34488258554285       -0.28391862594223       -1.12034042514185
H           -1.25605364843253       -1.67139680389449       -1.26451797540573
H            1.13549381415430       -1.94235318426478       -0.74254021897930
H            3.09934991104962       -0.53243218188877        1.03537711238639
H            3.13325951905827       -0.80494487497300       -0.72456227415673
H            3.17562797953709        0.85364198384387       -0.05896164605783

 Bond Distances (Angstroems)
 ---------------------------
C1-C2=1.4835         C1-H10=1.0902        C1-H11=1.0907        C1-H12=1.0888        C2-C1=1.4835         C2-C3=1.3430         
C2-S8=1.8264         C3-C2=1.3430         C3-C4=1.4191         C3-H13=1.0832        C4-C3=1.4191         C4-N5=1.3166         
C4-H14=1.0767        N5-C4=1.3166         N5-C6=1.4525         N5-N7=1.2987         C6-N5=1.4525         C6-H15=1.0906        
C6-H16=1.0874        C6-H17=1.0881        N7-N5=1.2987         N7-S8=1.6843         S8-C2=1.8264         S8-N7=1.6843         
S8-O9=1.4673         O9-S8=1.4673         H10-C1=1.0902        H11-C1=1.0907        H12-C1=1.0888        H13-C3=1.0832        
H14-C4=1.0767        H15-C6=1.0906        H16-C6=1.0874        H17-C6=1.0881        
 C  H  Rav=1.0870 sigma=0.0045  Rmin=1.0767  Rmax=1.0907     8
 C  C  Rav=1.4152 sigma=0.0574  Rmin=1.3430  Rmax=1.4835     3
 N  C  Rav=1.3845 sigma=0.0680  Rmin=1.3166  Rmax=1.4525     2
 N  N  Rav=1.2987 sigma=0.0000  Rmin=1.2987  Rmax=1.2987     1
 S  C  Rav=1.8264 sigma=0.0000  Rmin=1.8264  Rmax=1.8264     1
 S  N  Rav=1.6843 sigma=0.0000  Rmin=1.6843  Rmax=1.6843     1
 S  O  Rav=1.4673 sigma=0.0000  Rmin=1.4673  Rmax=1.4673     1

 selected bond angles (degree)
 --------------------
H10-C1-C2=109.89               H11-C1-C2=109.83               H11-C1-H10=107.44              H12-C1-C2=111.52               
H12-C1-H10=109.05              H12-C1-H11=109.01              C3-C2-C1=126.49                S8-C2-C1=116.12                
S8-C2-C3=117.27                C4-C3-C2=122.31                H13-C3-C2=120.91               H13-C3-C4=116.75               
N5-C4-C3=121.26                H14-C4-C3=120.72               H14-C4-N5=117.66               C6-N5-C4=119.96                
N7-N5-C4=126.13                N7-N5-C6=113.90                H15-C6-N5=109.30               H16-C6-N5=110.89               
H16-C6-H15=109.73              H17-C6-N5=107.88               H17-C6-H15=108.45              H17-C6-H16=110.52              
S8-N7-N5=118.90                N7-S8-C2= 97.26                O9-S8-C2=102.77                O9-S8-N7=106.82                

 selected dihedral angles (degree)
 ---------------------------------
C3-C2-C1-H10=234.35           C3-C2-C1-H11=116.36           C3-C2-C1-H12=355.40           S8-C2-C1-H10= 58.41           
S8-C2-C1-H11=300.42           S8-C2-C1-H12=179.46           C4-C3-C2-C1=173.33            C4-C3-C2-S8=349.23            
H13-C3-C2-C1=355.30           H13-C3-C2-S8=171.20           N5-C4-C3-C2=344.64            N5-C4-C3-H13=162.75           
H14-C4-C3-C2=171.62           H14-C4-C3-H13=349.73          C6-N5-C4-C3=188.88            C6-N5-C4-H14=  2.11           
N7-N5-C4-C3=  7.41            N7-N5-C4-H14=180.64           H15-C6-N5-C4=266.92           H15-C6-N5-N7= 88.22           
H16-C6-N5-C4= 28.03           H16-C6-N5-N7=209.33           H17-C6-N5-C4=149.18           H17-C6-N5-N7=330.48           
S8-N7-N5-C4= 28.03            S8-N7-N5-C6=206.63            N7-S8-C2-C1=211.26            N7-S8-C2-C3= 34.93            
O9-S8-C2-C1=102.10            O9-S8-C2-C3=285.78            C2-S8-N7-N5=316.65            O9-S8-N7-N5= 62.40            
           -------------------------------------------------
          |                Final Singlepoint                |
           -------------------------------------------------

          ...................................................
          :                      SETUP                      :
          :.................................................:
          :  # basis functions                  50          :
          :  # atomic orbitals                  49          :
          :  # shells                           27          :
          :  # electrons                        50          :
          :  max. iterations                   250          :
          :  Hamiltonian                  GFN2-xTB          :
          :  restarted?                      false          :
          :  GBSA solvation                  false          :
          :  PC potential                    false          :
          :  electronic temp.          300.0000000     K    :
          :  accuracy                    1.0000000          :
          :  -> integral cutoff          0.2500000E+02      :
          :  -> integral neglect         0.1000000E-07      :
          :  -> SCF convergence          0.1000000E-05 Eh   :
          :  -> wf. convergence          0.1000000E-03 e    :
          :  Broyden damping             0.4000000          :
          :  net charge                          0          :
          :  unpaired electrons                  0          :
          ...................................................

 iter      E             dE          RMSdq      gap      omega  full diag
   1    -28.1931824 -0.281932E+02  0.937E-05    2.32       0.0  T
   2    -28.1931824 -0.119478E-10  0.797E-05    2.32     304.4  T
   3    -28.1931824 -0.792717E-10  0.330E-05    2.32     734.3  T

   *** convergence criteria satisfied after 3 iterations ***

         #    Occupation            Energy/Eh            Energy/eV
      -------------------------------------------------------------
         1        2.0000           -0.7347344             -19.9931
       ...           ...                  ...                  ...
        19        2.0000           -0.4657546             -12.6738
        20        2.0000           -0.4582738             -12.4703
        21        2.0000           -0.4354831             -11.8501
        22        2.0000           -0.4173025             -11.3554
        23        2.0000           -0.3769904             -10.2584
        24        2.0000           -0.3682151             -10.0196
        25        2.0000           -0.3611264              -9.8268 (HOMO)
        26                         -0.2760498              -7.5117 (LUMO)
        27                         -0.1842910              -5.0148
        28                         -0.1776435              -4.8339
        29                         -0.1182179              -3.2169
        30                         -0.0392474              -1.0680
       ...                                ...                  ...
        49                          0.9456155              25.7315
      -------------------------------------------------------------
                  HL-Gap            0.0850766 Eh            2.3151 eV
             Fermi-level           -0.3185881 Eh           -8.6692 eV

 SCC (total)                   0 d,  0 h,  0 min,  0.607 sec
 SCC setup                      ...        0 min,  0.011 sec (  1.747%)
 Dispersion                     ...        0 min,  0.017 sec (  2.727%)
 classical contributions        ...        0 min,  0.015 sec (  2.405%)
 integral evaluation            ...        0 min,  0.049 sec (  8.034%)
 iterations                     ...        0 min,  0.322 sec ( 53.044%)
 molecular gradient             ...        0 min,  0.194 sec ( 32.016%)
 printout                       ...        0 min,  0.000 sec (  0.023%)

         :::::::::::::::::::::::::::::::::::::::::::::::::::::
         ::                     SUMMARY                     ::
         :::::::::::::::::::::::::::::::::::::::::::::::::::::
         :: total energy             -27.872922699310 Eh    ::
         :: gradient norm              0.000599106297 Eh/a0 ::
         :: HOMO-LUMO gap              2.315052096802 eV    ::
         ::.................................................::
         :: SCC energy               -28.193160276071 Eh    ::
         :: -> isotropic ES            0.055448461499 Eh    ::
         :: -> anisotropic ES          0.000052656157 Eh    ::
         :: -> anisotropic XC          0.015809349802 Eh    ::
         :: -> dispersion             -0.015164704149 Eh    ::
         :: repulsion energy           0.320237576761 Eh    ::
         :: add. restraining           0.000000000000 Eh    ::
         :: total charge               0.000000000000 e     ::
         :::::::::::::::::::::::::::::::::::::::::::::::::::::

           -------------------------------------------------
          |                Property Printout                |
           -------------------------------------------------

    * Orbital Energies and Occupations

         #    Occupation            Energy/Eh            Energy/eV
      -------------------------------------------------------------
         1        2.0000           -0.7347344             -19.9931
       ...           ...                  ...                  ...
        13        2.0000           -0.5087755             -13.8445
        14        2.0000           -0.5065275             -13.7833
        15        2.0000           -0.5029913             -13.6871
        16        2.0000           -0.4907568             -13.3542
        17        2.0000           -0.4865393             -13.2394
        18        2.0000           -0.4724151             -12.8551
        19        2.0000           -0.4657546             -12.6738
        20        2.0000           -0.4582738             -12.4703
        21        2.0000           -0.4354831             -11.8501
        22        2.0000           -0.4173025             -11.3554
        23        2.0000           -0.3769904             -10.2584
        24        2.0000           -0.3682151             -10.0196
        25        2.0000           -0.3611264              -9.8268 (HOMO)
        26                         -0.2760498              -7.5117 (LUMO)
        27                         -0.1842910              -5.0148
        28                         -0.1776435              -4.8339
        29                         -0.1182179              -3.2169
        30                         -0.0392474              -1.0680
        31                          0.0004506               0.0123
        32                          0.0542830               1.4771
        33                          0.0824826               2.2445
        34                          0.1176291               3.2009
        35                          0.1331984               3.6245
        36                          0.1453102               3.9541
       ...                                ...                  ...
        49                          0.9456155              25.7315
      -------------------------------------------------------------
                  HL-Gap            0.0850766 Eh            2.3151 eV
             Fermi-level           -0.3185881 Eh           -8.6692 eV

     #   Z          covCN         q      C6AA      α(0)
     1   6 C        3.774    -0.112    22.666     6.784
     2   6 C        2.940    -0.032    28.789     8.800
     3   6 C        2.949    -0.040    28.999     8.832
     4   6 C        2.865    -0.030    28.738     8.787
     5   7 N        2.904     0.176    18.305     6.354
     6   6 C        3.721    -0.076    22.062     6.708
     7   7 N        1.932    -0.340    29.677     8.078
     8  16 S        2.914     0.475   123.194    18.681
     9   8 O        0.860    -0.519    24.203     6.596
    10   1 H        0.925     0.056     2.251     2.346
    11   1 H        0.924     0.063     2.159     2.298
    12   1 H        0.925     0.049     2.335     2.390
    13   1 H        0.925     0.041     2.439     2.442
    14   1 H        0.926     0.043     2.405     2.425
    15   1 H        0.924     0.084     1.940     2.178
    16   1 H        0.925     0.068     2.107     2.270
    17   1 H        0.925     0.094     1.843     2.123

 Mol. C6AA /au·bohr⁶  :       3963.818955
 Mol. C8AA /au·bohr⁸  :     104437.832210
 Mol. α(0) /au        :         98.092337


Wiberg/Mayer (AO) data.
largest (>0.10) Wiberg bond orders for each atom

 ---------------------------------------------------------------------------
     #   Z sym  total        # sym  WBO       # sym  WBO       # sym  WBO
 ---------------------------------------------------------------------------
     1   6 C    3.995 --     2 C    1.044    12 H    0.980    10 H    0.965
                            11 H    0.962
     2   6 C    3.979 --     3 C    1.695     1 C    1.044     8 S    0.932
                             7 N    0.130
     3   6 C    3.990 --     2 C    1.695     4 C    1.222    13 H    0.953
     4   6 C    3.956 --     5 N    1.401     3 C    1.222    14 H    0.964
                             7 N    0.255
     5   7 N    3.777 --     4 C    1.401     7 N    1.279     6 C    0.977
     6   6 C    3.960 --    16 H    0.979     5 N    0.977    17 H    0.973
                            15 H    0.966
     7   7 N    2.956 --     5 N    1.279     8 S    1.126     4 C    0.255
                             2 C    0.130
     8  16 S    3.962 --     9 O    1.783     7 N    1.126     2 C    0.932
     9   8 O    2.012 --     8 S    1.783
    10   1 H    0.996 --     1 C    0.965
    11   1 H    0.995 --     1 C    0.962
    12   1 H    0.998 --     1 C    0.980
    13   1 H    0.998 --     3 C    0.953
    14   1 H    0.998 --     4 C    0.964
    15   1 H    0.992 --     6 C    0.966
    16   1 H    0.995 --     6 C    0.979
    17   1 H    0.991 --     6 C    0.973
 ---------------------------------------------------------------------------

Topologies differ in total number of bonds
Writing topology from bond orders to xtbtopo.mol

molecular dipole:
                 x           y           z       tot (Debye)
 q only:        0.658      -0.049      -1.616
   full:        0.611      -0.599      -1.778       5.015
molecular quadrupole (traceless):
                xx          xy          yy          xz          yz          zz
 q only:       12.408      -4.149       0.793       2.344       1.222     -13.200
  q+dip:       12.660      -4.968       0.479       2.807       1.150     -13.139
   full:       12.903      -4.686      -0.280       2.742       0.552     -12.624

           -------------------------------------------------
          |                Geometry Summary                 |
           -------------------------------------------------

      molecular mass/u    :      144.1948042
   center of mass at/Å    :       -0.1684916       0.2123471       0.4303203
  moments of inertia/u·Å² :        0.2033385E+03   0.4002741E+03   0.5200290E+03
rotational constants/cm⁻¹ :        0.8290427E-01   0.4211522E-01   0.3241672E-01

 * 16 selected distances

     #   Z          #   Z                                           value/Å
     1   6 C        2   6 C                                       1.4834795
     2   6 C        3   6 C                                       1.3430465
     3   6 C        4   6 C                                       1.4191106
     4   6 C        5   7 N                                       1.3165570
     5   7 N        6   6 C                                       1.4524657
     5   7 N        7   7 N                                       1.2986873
     7   7 N        8  16 S                                       1.6843401 (max)
     8  16 S        9   8 O                                       1.4673411
     1   6 C       10   1 H                                       1.0901893
     1   6 C       11   1 H                                       1.0907082
     1   6 C       12   1 H                                       1.0888243
     3   6 C       13   1 H                                       1.0831702
     4   6 C       14   1 H                                       1.0766741 (min)
     6   6 C       15   1 H                                       1.0906310
     6   6 C       16   1 H                                       1.0874014
     6   6 C       17   1 H                                       1.0880754

 * 6 distinct bonds (by element types)

   Z      Z             #   av. dist./Å        max./Å        min./Å
   1 H    6 C           8     1.0869592     1.0907082     1.0766741
   6 C    6 C           3     1.4152122     1.4834795     1.3430465
   6 C    7 N           2     1.3845113     1.4524657     1.3165570
   7 N    7 N           1     1.2986873     1.2986873     1.2986873
   7 N   16 S           1     1.6843401     1.6843401     1.6843401
   8 O   16 S           1     1.4673411     1.4673411     1.4673411


optimized geometry written to: xtbopt.xyz


           -------------------------------------------------
          | TOTAL ENERGY              -27.872922699310 Eh   |
          | GRADIENT NORM               0.000599106297 Eh/α |
          | HOMO-LUMO GAP               2.315052096802 eV   |
           -------------------------------------------------

------------------------------------------------------------------------
 * finished run on 2026/01/15 at 11:04:39.893     
------------------------------------------------------------------------
 total:
 * wall-time:     0 d,  0 h,  0 min, 53.660 sec
 *  cpu-time:     0 d,  0 h,  3 min, 26.264 sec
 * ratio c/w:     3.844 speedup
 SCF:
 * wall-time:     0 d,  0 h,  0 min,  1.034 sec
 *  cpu-time:     0 d,  0 h,  0 min,  6.010 sec
 * ratio c/w:     5.814 speedup
 ANC optimizer:
 * wall-time:     0 d,  0 h,  0 min, 52.436 sec
 *  cpu-time:     0 d,  0 h,  3 min, 19.687 sec
 * ratio c/w:     3.808 speedup

