      -----------------------------------------------------------      
     |                   =====================                   |     
     |                           x T B                           |     
     |                   =====================                   |     
     |                         S. Grimme                         |     
     |          Mulliken Center for Theoretical Chemistry        |     
     |                    University of Bonn                     |     
      -----------------------------------------------------------      

   * xtb version 6.7.1 (edcfbbe) compiled by 'conda@c0858423619e' on 2025-09-04

   xtb is free software: you can redistribute it and/or modify it under
   the terms of the GNU Lesser General Public License as published by
   the Free Software Foundation, either version 3 of the License, or
   (at your option) any later version.
   
   xtb is distributed in the hope that it will be useful,
   but WITHOUT ANY WARRANTY; without even the implied warranty of
   MERCHANTABILITY or FITNESS FOR A PARTICULAR PURPOSE.  See the
   GNU Lesser General Public License for more details.
   
   Cite this work as:
   * C. Bannwarth, E. Caldeweyher, S. Ehlert, A. Hansen, P. Pracht,
     J. Seibert, S. Spicher, S. Grimme, WIREs Comput. Mol. Sci., 2020, 11,
     e01493. DOI: 10.1002/wcms.1493
   
   for GFN2-xTB:
   * C. Bannwarth, S. Ehlert and S. Grimme., J. Chem. Theory Comput., 2019,
     15, 1652-1671. DOI: 10.1021/acs.jctc.8b01176
   for GFN1-xTB:
   * S. Grimme, C. Bannwarth, P. Shushkov, J. Chem. Theory Comput., 2017,
     13, 1989-2009. DOI: 10.1021/acs.jctc.7b00118
   for GFN0-xTB:
   * P. Pracht, E. Caldeweyher, S. Ehlert, S. Grimme, ChemRxiv, 2019, preprint.
     DOI: 10.26434/chemrxiv.8326202.v1
   for GFN-FF:
   * S. Spicher and S. Grimme, Angew. Chem. Int. Ed., 2020, 59, 15665-15673.
     DOI: 10.1002/anie.202004239
   
   for ALPB and GBSA implicit solvation:
   * S. Ehlert, M. Stahn, S. Spicher, S. Grimme, J. Chem. Theory Comput.,
     2021, 17, 4250-4261. DOI: 10.1021/acs.jctc.1c00471
   
   for ddCOSMO and CPCM-X implicit solvation:
   * M. Stahn, S. Ehlert, S. Grimme, J. Phys. Chem. A,
     2023, XX, XXXX-XXXX. DOI: 10.1021/acs.jpca.3c04382
   
   for DFT-D4:
   * E. Caldeweyher, C. Bannwarth and S. Grimme, J. Chem. Phys., 2017,
     147, 034112. DOI: 10.1063/1.4993215
   * E. Caldeweyher, S. Ehlert, A. Hansen, H. Neugebauer, S. Spicher,
     C. Bannwarth and S. Grimme, J. Chem. Phys., 2019, 150, 154122.
     DOI: 10.1063/1.5090222
   * E. Caldeweyher, J.-M. Mewes, S. Ehlert and S. Grimme, Phys. Chem. Chem. Phys.
     2020, 22, 8499-8512. DOI: 10.1039/D0CP00502A
   
   for sTDA-xTB:
   * S. Grimme and C. Bannwarth, J. Chem. Phys., 2016, 145, 054103.
     DOI: 10.1063/1.4959605
   
   in the mass-spec context:
   * V. Asgeirsson, C. Bauer and S. Grimme, Chem. Sci., 2017, 8, 4879.
     DOI: 10.1039/c7sc00601b
   * J. Koopman and S. Grimme, ACS Omega 2019, 4, 12, 15120-15133.
     DOI: 10.1021/acsomega.9b02011
   
   for metadynamics refer to:
   * S. Grimme, J. Chem. Theory Comput., 2019, 155, 2847-2862
     DOI: 10.1021/acs.jctc.9b00143
   
   for SPH calculations refer to:
   * S. Spicher and S. Grimme, J. Chem. Theory Comput., 2021, 17, 1701-1714
     DOI: 10.1021/acs.jctc.0c01306
   
   for ONIOM refer to:
   * C. Plett, A. Katbashev, S. Ehlert, S. Grimme, M. Bursch,
     Phys. Chem. Chem. Phys., 2023, 25, 17860-17868. DOI: 10.1039/D3CP02178E
   
   for DIPRO refer to:
   * J. Kohn, N. Gildemeister, S. Grimme, D. Fazzi, A. Hansen,
     J. Chem. Phys., 2023, just accepted.
   
   for PTB refer to:
   * S. Grimme, M. Mueller, A. Hansen, J. Chem. Phys., 2023, 158, 124111.
     DOI: 10.1063/5.0137838
   
   with help from (in alphabetical order)
   P. Atkinson, C. Bannwarth, F. Bohle, G. Brandenburg, E. Caldeweyher
   M. Checinski, S. Dohm, S. Ehlert, S. Ehrlich, I. Gerasimov, C. Hölzer
   A. Katbashev, J. Kohn, J. Koopman, C. Lavigne, S. Lehtola, F. März, M. Müller,
   F. Musil, H. Neugebauer, J. Pisarek, C. Plett, P. Pracht, F. Pultar,
   J. Seibert, P. Shushkov, S. Spicher, M. Stahn, M. Steiner, T. Strunk,
   J. Stückrath, T. Rose, and J. Unsleber
   
 * started run on 2026/01/15 at 10:40:42.658     
   ID    Z sym.   atoms
    1    6 C      1-4, 6
    2    7 N      5, 7
    3   16 S      8
    4    8 O      9
    5    1 H      10-18

           -------------------------------------------------
          |                Calculation Setup                |
           -------------------------------------------------

          program call               : /h/28/cicsy/miniforge3/envs/elagente/bin/xtb N4-Me_TDSO_pathwayB.xyz --opt --gfn 2 -P 4 --chrg 0
          coordinate file            : N4-Me_TDSO_pathwayB.xyz
          omp threads                :                     4


           -------------------------------------------------
          |                 G F N 2 - x T B                 |
           -------------------------------------------------

        Reference                      10.1021/acs.jctc.8b01176
      * Hamiltonian:
        H0-scaling (s, p, d)           1.850000    2.230000    2.230000
        zeta-weighting                 0.500000
      * Dispersion:
        s8                             2.700000
        a1                             0.520000
        a2                             5.000000
        s9                             5.000000
      * Repulsion:
        kExp                           1.500000    1.000000
        rExp                           1.000000
      * Coulomb:
        alpha                          2.000000
        third order                    shell-resolved
        anisotropic                    true
        a3                             3.000000
        a5                             4.000000
        cn-shift                       1.200000
        cn-exp                         4.000000
        max-rad                        5.000000


          ...................................................
          :                      SETUP                      :
          :.................................................:
          :  # basis functions                  51          :
          :  # atomic orbitals                  50          :
          :  # shells                           28          :
          :  # electrons                        51          :
          :  max. iterations                   250          :
          :  Hamiltonian                  GFN2-xTB          :
          :  restarted?                      false          :
          :  GBSA solvation                  false          :
          :  PC potential                    false          :
          :  electronic temp.          300.0000000     K    :
          :  accuracy                    1.0000000          :
          :  -> integral cutoff          0.2500000E+02      :
          :  -> integral neglect         0.1000000E-07      :
          :  -> SCF convergence          0.1000000E-05 Eh   :
          :  -> wf. convergence          0.1000000E-03 e    :
          :  Broyden damping             0.4000000          :
          :  net charge                          0          :
          :  unpaired electrons                  0          :
          ...................................................

 iter      E             dE          RMSdq      gap      omega  full diag
   1    -28.5020609 -0.285021E+02  0.427E+00    1.60       0.0  T
   2    -28.5948011 -0.927402E-01  0.338E+00    1.54       1.0  T
   3    -28.6162426 -0.214415E-01  0.187E+00    1.55       1.0  T
   4    -28.6063194  0.992316E-02  0.931E-01    1.52       1.0  T
   5    -28.6189695 -0.126501E-01  0.331E-01    1.40       1.0  T
   6    -28.6196293 -0.659795E-03  0.119E-01    1.44       1.0  T
   7    -28.6196690 -0.397628E-04  0.429E-02    1.44       1.0  T
   8    -28.6196729 -0.383878E-05  0.263E-02    1.43       1.0  T
   9    -28.6196752 -0.234353E-05  0.938E-03    1.44       2.5  T
  10    -28.6196755 -0.316343E-06  0.339E-03    1.43       7.0  T
  11    -28.6196755 -0.204798E-07  0.125E-03    1.43      18.9  T
  12    -28.6196755 -0.232571E-08  0.291E-04    1.43      81.0  T
  13    -28.6196755 -0.170743E-09  0.104E-04    1.43     226.4  T

   *** convergence criteria satisfied after 13 iterations ***

         #    Occupation            Energy/Eh            Energy/eV
      -------------------------------------------------------------
         1        2.0000           -0.7398987             -20.1337
       ...           ...                  ...                  ...
        20        2.0000           -0.4493811             -12.2283
        21        2.0000           -0.4387026             -11.9377
        22        2.0000           -0.4149103             -11.2903
        23        2.0000           -0.3963899             -10.7863
        24        2.0000           -0.3697105             -10.0603
        25        2.0000           -0.3648949              -9.9293
        26        1.0000           -0.2661752              -7.2430 (HOMO)
        27                         -0.2134454              -5.8081 (LUMO)
        28                         -0.1775061              -4.8302
        29                         -0.1269793              -3.4553
        30                         -0.0804349              -2.1887
        31                         -0.0601275              -1.6362
       ...                                ...                  ...
        50                          0.7875943              21.4315
      -------------------------------------------------------------
                  HL-Gap            0.0527299 Eh            1.4349 eV
             Fermi-level           -0.2776727 Eh           -7.5559 eV

 SCC (total)                   0 d,  0 h,  0 min,  3.428 sec
 SCC setup                      ...        0 min,  0.010 sec (  0.285%)
 Dispersion                     ...        0 min,  0.029 sec (  0.860%)
 classical contributions        ...        0 min,  0.027 sec (  0.779%)
 integral evaluation            ...        0 min,  0.080 sec (  2.345%)
 iterations                     ...        0 min,  3.067 sec ( 89.477%)
 molecular gradient             ...        0 min,  0.214 sec (  6.246%)
 printout                       ...        0 min,  0.000 sec (  0.007%)

         :::::::::::::::::::::::::::::::::::::::::::::::::::::
         ::                     SUMMARY                     ::
         :::::::::::::::::::::::::::::::::::::::::::::::::::::
         :: total energy             -28.326602751055 Eh    ::
         :: gradient norm              0.170949155460 Eh/a0 ::
         :: HOMO-LUMO gap              1.434852714469 eV    ::
         ::.................................................::
         :: SCC energy               -28.619642719095 Eh    ::
         :: -> isotropic ES            0.052784153326 Eh    ::
         :: -> anisotropic ES          0.005249710970 Eh    ::
         :: -> anisotropic XC          0.014448126913 Eh    ::
         :: -> dispersion             -0.015607278584 Eh    ::
         :: repulsion energy           0.293039968040 Eh    ::
         :: add. restraining           0.000000000000 Eh    ::
         :: total charge               0.000000000000 e     ::
         :::::::::::::::::::::::::::::::::::::::::::::::::::::

      ----------------------------------------------------------- 
     |                   =====================                   |
     |                        A N C O P T                        |
     |                   =====================                   |
     |               Approximate Normal Coordinate               |
     |                Rational Function Optimizer                |
      ----------------------------------------------------------- 
      ----------------------------------------------------------- 
     |                   =====================                   |
     |                        A N C O P T                        |
     |                   =====================                   |
     |               Approximate Normal Coordinate               |
     |                Rational Function Optimizer                |
      ----------------------------------------------------------- 

          ...................................................
          :                      SETUP                      :
          :.................................................:
          :   optimization level            normal          :
          :   max. optcycles                   200          :
          :   ANC micro-cycles                  20          :
          :   degrees of freedom                48          :
          :.................................................:
          :   RF solver                   davidson          :
          :   write xtbopt.log                true          :
          :   linear?                        false          :
          :   energy convergence         0.5000000E-05 Eh   :
          :   grad. convergence          0.1000000E-02 Eh/α :
          :   maxmium RF displ.          1.0000000          :
          :   Hlow (freq-cutoff)         0.1000000E-01      :
          :   Hmax (freq-cutoff)         5.0000000          :
          :   S6 in model hess.         20.0000000          :
          ...................................................

generating ANC from exact Hessian ...
Using Lindh-Hessian (1995)
 Shifting diagonal of input Hessian by    7.3241242459991911E-003
 Lowest  eigenvalues of input Hessian
    0.000000    0.000000    0.000000    0.000000    0.000000    0.000000
    0.010000    0.014205    0.016313    0.017297    0.020501    0.023260
    0.026183    0.030302    0.037051    0.042632    0.050553    0.066715
 Highest eigenvalues
    1.379546    1.466486    1.757901    1.914085    2.076853    2.117767


........................................................................
.............................. CYCLE    1 ..............................
........................................................................

 iter      E             dE          RMSdq      gap      omega  full diag
   1    -28.6196755 -0.286197E+02  0.362E-05    1.43       0.0  T
   2    -28.6196755 -0.617462E-11  0.216E-05    1.43    1088.9  T
   3    -28.6196755 -0.204636E-11  0.133E-05    1.43    1767.4  T
     SCC iter.                  ...        0 min,  1.268 sec
     gradient                   ...        0 min,  0.190 sec
 * total energy  :   -28.3266028 Eh     change       -0.3221956E-10 Eh
   gradient norm :     0.1709493 Eh/α   predicted     0.0000000E+00 (-100.00%)
   displ. norm   :     0.2817761 α      lambda       -0.2371475E-01
   maximum displ.:     0.0888506 α      in ANC's #4, #9, #16, ...

........................................................................
.............................. CYCLE    2 ..............................
........................................................................

 iter      E             dE          RMSdq      gap      omega  full diag
   1    -28.6529371 -0.286529E+02  0.353E-01    1.70       0.0  T
   2    -28.6532800 -0.342888E-03  0.235E-01    1.67       1.0  T
   3    -28.6534460 -0.166012E-03  0.119E-01    1.66       1.0  T
   4    -28.6534729 -0.268929E-04  0.706E-02    1.66       1.0  T
   5    -28.6535301 -0.572441E-04  0.160E-02    1.66       1.5  T
   6    -28.6535304 -0.332719E-06  0.630E-03    1.66       3.7  T
   7    -28.6535306 -0.176042E-06  0.200E-03    1.66      11.8  T
   8    -28.6535306 -0.721734E-08  0.111E-03    1.66      21.2  T
   9    -28.6535306 -0.229040E-08  0.402E-04    1.66      58.6  T
  10    -28.6535306 -0.774513E-09  0.164E-04    1.66     144.0  T
     SCC iter.                  ...        0 min,  3.399 sec
     gradient                   ...        0 min,  0.160 sec
 * total energy  :   -28.3437931 Eh     change       -0.1719032E-01 Eh
   gradient norm :     0.0802501 Eh/α   predicted    -0.1279883E-01 ( -25.55%)
   displ. norm   :     0.2993879 α      lambda       -0.1017198E-01
   maximum displ.:     0.1423977 α      in ANC's #4, #9, #3, ...

........................................................................
.............................. CYCLE    3 ..............................
........................................................................

 iter      E             dE          RMSdq      gap      omega  full diag
   1    -28.6746059 -0.286746E+02  0.337E-01    1.89       0.0  T
   2    -28.6750067 -0.400751E-03  0.210E-01    1.85       1.0  T
   3    -28.6751278 -0.121078E-03  0.110E-01    1.85       1.0  T
   4    -28.6751129  0.148505E-04  0.705E-02    1.84       1.0  T
   5    -28.6751812 -0.683183E-04  0.135E-02    1.84       1.7  T
   6    -28.6751816 -0.374296E-06  0.567E-03    1.84       4.2  T
   7    -28.6751817 -0.122509E-06  0.132E-03    1.84      17.9  T
   8    -28.6751817 -0.518550E-08  0.600E-04    1.84      39.3  T
   9    -28.6751817 -0.335973E-09  0.240E-04    1.84      98.2  T
     SCC iter.                  ...        0 min,  2.830 sec
     gradient                   ...        0 min,  0.168 sec
 * total energy  :   -28.3495541 Eh     change       -0.5761061E-02 Eh
   gradient norm :     0.0255046 Eh/α   predicted    -0.5541863E-02 (  -3.80%)
   displ. norm   :     0.2641344 α      lambda       -0.2359240E-02
   maximum displ.:     0.1557110 α      in ANC's #4, #3, #1, ...

........................................................................
.............................. CYCLE    4 ..............................
........................................................................

 iter      E             dE          RMSdq      gap      omega  full diag
   1    -28.6733432 -0.286733E+02  0.193E-01    1.93       0.0  T
   2    -28.6733828 -0.396086E-04  0.108E-01    1.92       1.0  T
   3    -28.6733862 -0.335270E-05  0.365E-02    1.92       1.0  T
   4    -28.6733882 -0.206150E-05  0.121E-02    1.92       1.9  T
   5    -28.6733883 -0.294857E-07  0.730E-03    1.92       3.2  T
   6    -28.6733889 -0.591652E-06  0.307E-03    1.92       7.7  T
   7    -28.6733890 -0.951726E-07  0.107E-03    1.92      22.0  T
   8    -28.6733890 -0.252779E-08  0.502E-04    1.92      47.0  T
   9    -28.6733890 -0.277147E-09  0.176E-04    1.92     133.6  T
     SCC iter.                  ...        0 min,  1.598 sec
     gradient                   ...        0 min,  0.222 sec
 * total energy  :   -28.3515704 Eh     change       -0.2016224E-02 Eh
   gradient norm :     0.0201035 Eh/α   predicted    -0.1261922E-02 ( -37.41%)
   displ. norm   :     0.6113887 α      lambda       -0.4724489E-02
   maximum displ.:     0.3203400 α      in ANC's #4, #3, #1, ...

........................................................................
.............................. CYCLE    5 ..............................
........................................................................

 iter      E             dE          RMSdq      gap      omega  full diag
   1    -28.6617232 -0.286617E+02  0.474E-01    2.08       0.0  T
   2    -28.6619066 -0.183350E-03  0.262E-01    2.11       1.0  T
   3    -28.6617471  0.159503E-03  0.135E-01    2.08       1.0  T
   4    -28.6619566 -0.209521E-03  0.455E-02    2.09       1.0  T
   5    -28.6619748 -0.181676E-04  0.186E-02    2.09       1.3  T
   6    -28.6619772 -0.245505E-05  0.646E-03    2.09       3.6  T
   7    -28.6619775 -0.235146E-06  0.244E-03    2.09       9.7  T
   8    -28.6619775 -0.232947E-07  0.124E-03    2.09      19.1  T
   9    -28.6619775 -0.263551E-08  0.450E-04    2.09      52.3  T
  10    -28.6619775 -0.452449E-09  0.178E-04    2.09     132.5  T
     SCC iter.                  ...        0 min,  1.386 sec
     gradient                   ...        0 min,  0.187 sec
 * total energy  :   -28.3536094 Eh     change       -0.2038996E-02 Eh
   gradient norm :     0.0414212 Eh/α   predicted    -0.3245243E-02 (  59.16%)
   displ. norm   :     0.1337596 α      lambda       -0.2269753E-02
   maximum displ.:     0.0787549 α      in ANC's #6, #4, #10, ...

........................................................................
.............................. CYCLE    6 ..............................
........................................................................

 iter      E             dE          RMSdq      gap      omega  full diag
   1    -28.6675357 -0.286675E+02  0.164E-01    2.06       0.0  T
   2    -28.6676113 -0.756123E-04  0.927E-02    2.07       1.0  T
   3    -28.6676179 -0.663599E-05  0.483E-02    2.08       1.0  T
   4    -28.6676137  0.418194E-05  0.245E-02    2.08       1.0  T
   5    -28.6676222 -0.845147E-05  0.876E-03    2.08       2.7  T
   6    -28.6676226 -0.366511E-06  0.303E-03    2.08       7.8  T
   7    -28.6676226 -0.645875E-07  0.968E-04    2.08      24.3  T
   8    -28.6676226 -0.225395E-08  0.541E-04    2.08      43.6  T
     SCC iter.                  ...        0 min,  2.079 sec
     gradient                   ...        0 min,  0.158 sec
 * total energy  :   -28.3550667 Eh     change       -0.1457384E-02 Eh
   gradient norm :     0.0162219 Eh/α   predicted    -0.1155180E-02 ( -20.74%)
   displ. norm   :     0.3581650 α      lambda       -0.1956399E-02
   maximum displ.:     0.1707482 α      in ANC's #4, #6, #3, ...

........................................................................
.............................. CYCLE    7 ..............................
........................................................................

 iter      E             dE          RMSdq      gap      omega  full diag
   1    -28.6700726 -0.286701E+02  0.281E-01    2.08       0.0  T
   2    -28.6702910 -0.218422E-03  0.137E-01    2.13       1.0  T
   3    -28.6703089 -0.178576E-04  0.666E-02    2.13       1.0  T
   4    -28.6703061  0.270257E-05  0.285E-02    2.13       1.0  T
   5    -28.6703125 -0.630924E-05  0.164E-02    2.13       1.4  T
   6    -28.6703139 -0.141092E-05  0.493E-03    2.13       4.8  T
   7    -28.6703141 -0.251214E-06  0.180E-03    2.13      13.1  T
   8    -28.6703141 -0.113415E-07  0.854E-04    2.13      27.6  T
   9    -28.6703141 -0.151307E-08  0.262E-04    2.13      90.0  T
     SCC iter.                  ...        0 min,  1.100 sec
     gradient                   ...        0 min,  0.184 sec
 * total energy  :   -28.3564837 Eh     change       -0.1416940E-02 Eh
   gradient norm :     0.0215133 Eh/α   predicted    -0.1103694E-02 ( -22.11%)
   displ. norm   :     0.3073417 α      lambda       -0.1372895E-02
   maximum displ.:     0.1362633 α      in ANC's #11, #6, #4, ...

........................................................................
.............................. CYCLE    8 ..............................
........................................................................

 iter      E             dE          RMSdq      gap      omega  full diag
   1    -28.6740841 -0.286741E+02  0.246E-01    2.18       0.0  T
   2    -28.6742454 -0.161244E-03  0.119E-01    2.22       1.0  T
   3    -28.6742605 -0.151526E-04  0.617E-02    2.21       1.0  T
   4    -28.6742575  0.304360E-05  0.374E-02    2.21       1.0  T
   5    -28.6742779 -0.204042E-04  0.137E-02    2.21       1.7  T
   6    -28.6742782 -0.253818E-06  0.425E-03    2.21       5.5  T
   7    -28.6742783 -0.117489E-06  0.166E-03    2.21      14.2  T
   8    -28.6742783 -0.734760E-08  0.823E-04    2.21      28.7  T
   9    -28.6742783 -0.170839E-08  0.259E-04    2.21      91.0  T
     SCC iter.                  ...        0 min,  2.416 sec
     gradient                   ...        0 min,  0.052 sec
 * total energy  :   -28.3573502 Eh     change       -0.8665733E-03 Eh
   gradient norm :     0.0276019 Eh/α   predicted    -0.7512873E-03 ( -13.30%)
   displ. norm   :     0.1729017 α      lambda       -0.6787409E-03
   maximum displ.:     0.0888416 α      in ANC's #4, #1, #11, ...

........................................................................
.............................. CYCLE    9 ..............................
........................................................................

 iter      E             dE          RMSdq      gap      omega  full diag
   1    -28.6758951 -0.286759E+02  0.101E-01    2.26       0.0  T
   2    -28.6759026 -0.745944E-05  0.528E-02    2.27       1.0  T
   3    -28.6758910  0.115427E-04  0.356E-02    2.27       1.0  T
   4    -28.6759111 -0.200256E-04  0.100E-02    2.27       2.4  T
   5    -28.6759113 -0.246188E-06  0.512E-03    2.27       4.6  T
   6    -28.6759114 -0.108538E-06  0.175E-03    2.27      13.5  T
   7    -28.6759114 -0.981667E-08  0.934E-04    2.27      25.2  T
   8    -28.6759114 -0.142202E-08  0.374E-04    2.27      63.1  T
     SCC iter.                  ...        0 min,  2.003 sec
     gradient                   ...        0 min,  0.198 sec
 * total energy  :   -28.3578743 Eh     change       -0.5240723E-03 Eh
   gradient norm :     0.0204532 Eh/α   predicted    -0.3495143E-03 ( -33.31%)
   displ. norm   :     0.2734510 α      lambda       -0.8367801E-03
   maximum displ.:     0.1730464 α      in ANC's #4, #1, #6, ...

........................................................................
.............................. CYCLE   10 ..............................
........................................................................

 iter      E             dE          RMSdq      gap      omega  full diag
   1    -28.6754424 -0.286754E+02  0.164E-01    2.28       0.0  T
   2    -28.6754695 -0.271261E-04  0.821E-02    2.30       1.0  T
   3    -28.6754534  0.161122E-04  0.468E-02    2.29       1.0  T
   4    -28.6754820 -0.285992E-04  0.167E-02    2.29       1.4  T
   5    -28.6754832 -0.121444E-05  0.102E-02    2.29       2.3  T
   6    -28.6754838 -0.577101E-06  0.275E-03    2.29       8.6  T
   7    -28.6754838 -0.221923E-07  0.139E-03    2.29      16.9  T
   8    -28.6754838 -0.321046E-08  0.586E-04    2.29      40.2  T
   9    -28.6754838 -0.513449E-09  0.209E-04    2.29     112.9  T
     SCC iter.                  ...        0 min,  1.171 sec
     gradient                   ...        0 min,  0.162 sec
 * total energy  :   -28.3584539 Eh     change       -0.5795424E-03 Eh
   gradient norm :     0.0127248 Eh/α   predicted    -0.4496754E-03 ( -22.41%)
   displ. norm   :     0.1811805 α      lambda       -0.5175034E-03
   maximum displ.:     0.1191787 α      in ANC's #4, #6, #7, ...

........................................................................
.............................. CYCLE   11 ..............................
........................................................................

 iter      E             dE          RMSdq      gap      omega  full diag
   1    -28.6775103 -0.286775E+02  0.132E-01    2.29       0.0  T
   2    -28.6775323 -0.220070E-04  0.684E-02    2.29       1.0  T
   3    -28.6775190  0.132435E-04  0.413E-02    2.29       1.0  T
   4    -28.6775441 -0.251184E-04  0.139E-02    2.29       1.7  T
   5    -28.6775456 -0.143794E-05  0.716E-03    2.29       3.3  T
   6    -28.6775456 -0.743384E-07  0.281E-03    2.29       8.4  T
   7    -28.6775457 -0.468185E-07  0.126E-03    2.29      18.7  T
   8    -28.6775457 -0.160859E-08  0.593E-04    2.29      39.8  T
   9    -28.6775457 -0.799560E-09  0.173E-04    2.29     136.3  T
     SCC iter.                  ...        0 min,  3.439 sec
     gradient                   ...        0 min,  0.235 sec
 * total energy  :   -28.3587824 Eh     change       -0.3285382E-03 Eh
   gradient norm :     0.0089007 Eh/α   predicted    -0.2672473E-03 ( -18.66%)
   displ. norm   :     0.3355031 α      lambda       -0.5353111E-03
   maximum displ.:     0.2430299 α      in ANC's #4, #6, #7, ...

........................................................................
.............................. CYCLE   12 ..............................
........................................................................

 iter      E             dE          RMSdq      gap      omega  full diag
   1    -28.6730378 -0.286730E+02  0.276E-01    2.23       0.0  T
   2    -28.6731882 -0.150429E-03  0.131E-01    2.29       1.0  T
   3    -28.6732022 -0.139915E-04  0.667E-02    2.27       1.0  T
   4    -28.6732246 -0.223697E-04  0.254E-02    2.28       1.0  T
   5    -28.6732262 -0.164890E-05  0.108E-02    2.28       2.2  T
   6    -28.6732264 -0.110665E-06  0.544E-03    2.28       4.3  T
   7    -28.6732268 -0.419516E-06  0.137E-03    2.28      17.2  T
   8    -28.6732268 -0.862370E-08  0.832E-04    2.28      28.3  T
   9    -28.6732268 -0.228091E-08  0.313E-04    2.28      75.2  T
     SCC iter.                  ...        0 min,  2.750 sec
     gradient                   ...        0 min,  0.211 sec
 * total energy  :   -28.3589043 Eh     change       -0.1218828E-03 Eh
   gradient norm :     0.0163896 Eh/α   predicted    -0.2977783E-03 ( 144.32%)
   displ. norm   :     0.1019591 α      lambda       -0.4853037E-03
   maximum displ.:     0.0638439 α      in ANC's #1, #11, #7, ...

........................................................................
.............................. CYCLE   13 ..............................
........................................................................

 iter      E             dE          RMSdq      gap      omega  full diag
   1    -28.6772094 -0.286772E+02  0.928E-02    2.28       0.0  T
   2    -28.6772588 -0.494240E-04  0.577E-02    2.26       1.0  T
   3    -28.6772649 -0.612844E-05  0.302E-02    2.26       1.0  T
   4    -28.6772633  0.160594E-05  0.131E-02    2.26       1.8  T
   5    -28.6772653 -0.195379E-05  0.371E-03    2.26       6.3  T
   6    -28.6772653 -0.153676E-07  0.235E-03    2.26      10.0  T
   7    -28.6772653 -0.709230E-07  0.433E-04    2.26      54.5  T
   8    -28.6772653 -0.225963E-09  0.244E-04    2.26      96.7  T
     SCC iter.                  ...        0 min,  1.199 sec
     gradient                   ...        0 min,  0.189 sec
 * total energy  :   -28.3591858 Eh     change       -0.2815127E-03 Eh
   gradient norm :     0.0084347 Eh/α   predicted    -0.2451750E-03 ( -12.91%)
   displ. norm   :     0.1110068 α      lambda       -0.2002496E-03
   maximum displ.:     0.0859325 α      in ANC's #4, #6, #2, ...

........................................................................
.............................. CYCLE   14 ..............................
........................................................................

 iter      E             dE          RMSdq      gap      omega  full diag
   1    -28.6777646 -0.286778E+02  0.627E-02    2.26       0.0  T
   2    -28.6777692 -0.457678E-05  0.338E-02    2.26       1.0  T
   3    -28.6777680  0.124549E-05  0.134E-02    2.26       1.8  T
   4    -28.6777695 -0.153094E-05  0.692E-03    2.26       3.4  T
   5    -28.6777700 -0.531928E-06  0.285E-03    2.26       8.3  T
   6    -28.6777701 -0.208343E-07  0.873E-04    2.26      27.0  T
   7    -28.6777701 -0.274114E-08  0.447E-04    2.26      52.7  T
     SCC iter.                  ...        0 min,  2.428 sec
     gradient                   ...        0 min,  0.164 sec
 * total energy  :   -28.3593355 Eh     change       -0.1496689E-03 Eh
   gradient norm :     0.0092259 Eh/α   predicted    -0.1013601E-03 ( -32.28%)
   displ. norm   :     0.2374989 α      lambda       -0.3487229E-03
   maximum displ.:     0.1748230 α      in ANC's #4, #6, #3, ...

........................................................................
.............................. CYCLE   15 ..............................
........................................................................

 iter      E             dE          RMSdq      gap      omega  full diag
   1    -28.6784472 -0.286784E+02  0.125E-01    2.24       0.0  T
   2    -28.6784631 -0.159101E-04  0.638E-02    2.26       1.0  T
   3    -28.6784609  0.225376E-05  0.262E-02    2.25       1.0  T
   4    -28.6784662 -0.534279E-05  0.110E-02    2.26       2.1  T
   5    -28.6784666 -0.397511E-06  0.534E-03    2.26       4.4  T
   6    -28.6784668 -0.189069E-06  0.244E-03    2.26       9.6  T
   7    -28.6784669 -0.649705E-07  0.854E-04    2.26      27.6  T
   8    -28.6784669 -0.337955E-09  0.432E-04    2.26      54.6  T
     SCC iter.                  ...        0 min,  2.625 sec
     gradient                   ...        0 min,  0.179 sec
 * total energy  :   -28.3595503 Eh     change       -0.2148497E-03 Eh
   gradient norm :     0.0088952 Eh/α   predicted    -0.1841971E-03 ( -14.27%)
   displ. norm   :     0.1827465 α      lambda       -0.2084453E-03
   maximum displ.:     0.1501637 α      in ANC's #4, #6, #2, ...

........................................................................
.............................. CYCLE   16 ..............................
........................................................................

 iter      E             dE          RMSdq      gap      omega  full diag
   1    -28.6769404 -0.286769E+02  0.645E-02    2.27       0.0  T
   2    -28.6769424 -0.199045E-05  0.356E-02    2.27       1.0  T
   3    -28.6769401  0.232286E-05  0.168E-02    2.27       1.4  T
   4    -28.6769433 -0.323325E-05  0.604E-03    2.27       3.9  T
   5    -28.6769434 -0.903629E-07  0.318E-03    2.27       7.4  T
   6    -28.6769435 -0.114413E-06  0.923E-04    2.27      25.5  T
   7    -28.6769435 -0.287737E-08  0.475E-04    2.27      49.7  T
     SCC iter.                  ...        0 min,  1.550 sec
     gradient                   ...        0 min,  0.163 sec
 * total energy  :   -28.3596922 Eh     change       -0.1419215E-03 Eh
   gradient norm :     0.0098626 Eh/α   predicted    -0.1077031E-03 ( -24.11%)
   displ. norm   :     0.1764056 α      lambda       -0.3185765E-03
   maximum displ.:     0.1248388 α      in ANC's #4, #6, #5, ...

........................................................................
.............................. CYCLE   17 ..............................
........................................................................

 iter      E             dE          RMSdq      gap      omega  full diag
   1    -28.6771132 -0.286771E+02  0.607E-02    2.31       0.0  T
   2    -28.6771248 -0.116292E-04  0.421E-02    2.31       1.0  T
   3    -28.6771255 -0.644243E-06  0.200E-02    2.31       1.2  T
   4    -28.6771252  0.292075E-06  0.841E-03    2.31       2.8  T
   5    -28.6771259 -0.730506E-06  0.374E-03    2.31       6.3  T
   6    -28.6771260 -0.946131E-07  0.130E-03    2.31      18.2  T
   7    -28.6771260 -0.888032E-08  0.609E-04    2.31      38.7  T
   8    -28.6771260 -0.837407E-09  0.283E-04    2.31      83.2  T
     SCC iter.                  ...        0 min,  2.017 sec
     gradient                   ...        0 min,  0.204 sec
 * total energy  :   -28.3599092 Eh     change       -0.2169431E-03 Eh
   gradient norm :     0.0082957 Eh/α   predicted    -0.1642443E-03 ( -24.29%)
   displ. norm   :     0.1770805 α      lambda       -0.2426420E-03
   maximum displ.:     0.1320029 α      in ANC's #4, #2, #6, ...

........................................................................
.............................. CYCLE   18 ..............................
........................................................................

 iter      E             dE          RMSdq      gap      omega  full diag
   1    -28.6762017 -0.286762E+02  0.577E-02    2.35       0.0  T
   2    -28.6762106 -0.884506E-05  0.357E-02    2.34       1.0  T
   3    -28.6762106 -0.204047E-07  0.153E-02    2.34       1.5  T
   4    -28.6762104  0.252111E-06  0.798E-03    2.34       3.0  T
   5    -28.6762112 -0.853534E-06  0.272E-03    2.34       8.7  T
   6    -28.6762112 -0.357590E-07  0.923E-04    2.34      25.6  T
   7    -28.6762112 -0.395160E-08  0.347E-04    2.34      67.9  T
     SCC iter.                  ...        0 min,  0.808 sec
     gradient                   ...        0 min,  0.148 sec
 * total energy  :   -28.3600820 Eh     change       -0.1728411E-03 Eh
   gradient norm :     0.0073874 Eh/α   predicted    -0.1251266E-03 ( -27.61%)
   displ. norm   :     0.1373801 α      lambda       -0.2093870E-03
   maximum displ.:     0.0926678 α      in ANC's #4, #2, #29, ...

........................................................................
.............................. CYCLE   19 ..............................
........................................................................

 iter      E             dE          RMSdq      gap      omega  full diag
   1    -28.6773363 -0.286773E+02  0.616E-02    2.38       0.0  T
   2    -28.6773471 -0.108418E-04  0.369E-02    2.37       1.0  T
   3    -28.6773470  0.747167E-07  0.152E-02    2.37       1.5  T
   4    -28.6773472 -0.124550E-06  0.819E-03    2.37       2.9  T
   5    -28.6773480 -0.879109E-06  0.288E-03    2.37       8.2  T
   6    -28.6773481 -0.221565E-07  0.152E-03    2.37      15.5  T
   7    -28.6773481 -0.237100E-07  0.359E-04    2.37      65.6  T
   8    -28.6773481 -0.263896E-09  0.182E-04    2.37     129.7  T
     SCC iter.                  ...        0 min,  1.354 sec
     gradient                   ...        0 min,  0.137 sec
 * total energy  :   -28.3602140 Eh     change       -0.1319891E-03 Eh
   gradient norm :     0.0053493 Eh/α   predicted    -0.1066698E-03 ( -19.18%)
   displ. norm   :     0.2628051 α      lambda       -0.1651033E-03
   maximum displ.:     0.2024209 α      in ANC's #4, #2, #6, ...

........................................................................
.............................. CYCLE   20 ..............................
........................................................................

 iter      E             dE          RMSdq      gap      omega  full diag
   1    -28.6747144 -0.286747E+02  0.105E-01    2.39       0.0  T
   2    -28.6747233 -0.887781E-05  0.539E-02    2.39       1.0  T
   3    -28.6747173  0.598678E-05  0.276E-02    2.39       1.0  T
   4    -28.6747256 -0.832775E-05  0.117E-02    2.39       2.0  T
   5    -28.6747267 -0.104023E-05  0.492E-03    2.39       4.8  T
   6    -28.6747268 -0.140310E-06  0.137E-03    2.39      17.2  T
   7    -28.6747268 -0.119602E-07  0.583E-04    2.39      40.4  T
   8    -28.6747268 -0.152038E-09  0.302E-04    2.39      78.1  T
     SCC iter.                  ...        0 min,  0.861 sec
     gradient                   ...        0 min,  0.128 sec
 * total energy  :   -28.3602680 Eh     change       -0.5401179E-04 Eh
   gradient norm :     0.0091589 Eh/α   predicted    -0.8825079E-04 (  63.39%)
   displ. norm   :     0.0486966 α      lambda       -0.1678472E-03
   maximum displ.:     0.0252734 α      in ANC's #5, #1, #4, ...
 * RMSD in coord.:     0.8060355 α      energy gain  -0.3366527E-01 Eh

generating ANC from exact Hessian ...
Using Lindh-Hessian (1995)
 Shifting diagonal of input Hessian by    6.6856959295888471E-003
 Lowest  eigenvalues of input Hessian
    0.000000    0.000000    0.000000    0.000000    0.000000    0.000000
    0.010000    0.013848    0.015333    0.017565    0.021640    0.025385
    0.026657    0.032586    0.037880    0.047278    0.057315    0.070775
 Highest eigenvalues
    1.369576    1.519555    1.743956    1.938313    2.062324    2.472726


........................................................................
.............................. CYCLE   21 ..............................
........................................................................

 iter      E             dE          RMSdq      gap      omega  full diag
   1    -28.6779748 -0.286780E+02  0.308E-02    2.39       0.0  T
   2    -28.6779770 -0.217675E-05  0.172E-02    2.39       1.4  T
   3    -28.6779770 -0.162634E-07  0.953E-03    2.39       2.5  T
   4    -28.6779771 -0.103973E-06  0.415E-03    2.39       5.7  T
   5    -28.6779774 -0.277428E-06  0.129E-03    2.39      18.3  T
   6    -28.6779774 -0.654487E-08  0.711E-04    2.39      33.1  T
   7    -28.6779774 -0.267922E-08  0.182E-04    2.39     129.7  T
     SCC iter.                  ...        0 min,  0.742 sec
     gradient                   ...        0 min,  0.051 sec
 * total energy  :   -28.3603737 Eh     change       -0.1056765E-03 Eh
   gradient norm :     0.0052359 Eh/α   predicted     0.0000000E+00 (-100.00%)
   displ. norm   :     0.0834541 α      lambda       -0.1651728E-03
   maximum displ.:     0.0475399 α      in ANC's #4, #1, #2, ...

........................................................................
.............................. CYCLE   22 ..............................
........................................................................

 iter      E             dE          RMSdq      gap      omega  full diag
   1    -28.6785103 -0.286785E+02  0.408E-02    2.38       0.0  T
   2    -28.6785112 -0.905040E-06  0.203E-02    2.38       1.2  T
   3    -28.6785104  0.862123E-06  0.101E-02    2.38       2.3  T
   4    -28.6785115 -0.110868E-05  0.417E-03    2.38       5.7  T
   5    -28.6785116 -0.151717E-06  0.179E-03    2.38      13.2  T
   6    -28.6785116 -0.105825E-07  0.578E-04    2.38      40.8  T
   7    -28.6785116 -0.208625E-08  0.268E-04    2.38      88.1  T
     SCC iter.                  ...        0 min,  2.280 sec
     gradient                   ...        0 min,  0.217 sec
 * total energy  :   -28.3605126 Eh     change       -0.1389481E-03 Eh
   gradient norm :     0.0030136 Eh/α   predicted    -0.8316159E-04 ( -40.15%)
   displ. norm   :     0.2551227 α      lambda       -0.3369297E-03
   maximum displ.:     0.1627318 α      in ANC's #4, #1, #2, ...

........................................................................
.............................. CYCLE   23 ..............................
........................................................................

 iter      E             dE          RMSdq      gap      omega  full diag
   1    -28.6782395 -0.286782E+02  0.103E-01    2.36       0.0  T
   2    -28.6782440 -0.456164E-05  0.526E-02    2.36       1.0  T
   3    -28.6782330  0.110380E-04  0.328E-02    2.36       1.0  T
   4    -28.6782484 -0.153836E-04  0.103E-02    2.36       2.3  T
   5    -28.6782488 -0.402608E-06  0.486E-03    2.36       4.8  T
   6    -28.6782489 -0.778575E-07  0.152E-03    2.36      15.5  T
   7    -28.6782489 -0.114662E-07  0.788E-04    2.36      29.9  T
   8    -28.6782489 -0.748550E-09  0.267E-04    2.36      88.4  T
     SCC iter.                  ...        0 min,  0.922 sec
     gradient                   ...        0 min,  0.121 sec
 * total energy  :   -28.3607440 Eh     change       -0.2313714E-03 Eh
   gradient norm :     0.0038252 Eh/α   predicted    -0.1794293E-03 ( -22.45%)
   displ. norm   :     0.2269982 α      lambda       -0.1709061E-03
   maximum displ.:     0.1557703 α      in ANC's #4, #1, #2, ...

........................................................................
.............................. CYCLE   24 ..............................
........................................................................

 iter      E             dE          RMSdq      gap      omega  full diag
   1    -28.6772040 -0.286772E+02  0.733E-02    2.35       0.0  T
   2    -28.6772066 -0.264290E-05  0.399E-02    2.35       1.0  T
   3    -28.6771993  0.728004E-05  0.275E-02    2.35       1.0  T
   4    -28.6772101 -0.107835E-04  0.743E-03    2.35       3.2  T
   5    -28.6772103 -0.161853E-06  0.375E-03    2.35       6.3  T
   6    -28.6772103 -0.543316E-07  0.114E-03    2.35      20.6  T
   7    -28.6772103 -0.518293E-08  0.586E-04    2.35      40.2  T
   8    -28.6772103 -0.187473E-09  0.209E-04    2.35     112.6  T
     SCC iter.                  ...        0 min,  1.774 sec
     gradient                   ...        0 min,  0.064 sec
 * total energy  :   -28.3608691 Eh     change       -0.1250484E-03 Eh
   gradient norm :     0.0070008 Eh/α   predicted    -0.8985595E-04 ( -28.14%)
   displ. norm   :     0.2375497 α      lambda       -0.1823125E-03
   maximum displ.:     0.1660411 α      in ANC's #4, #1, #2, ...

........................................................................
.............................. CYCLE   25 ..............................
........................................................................

 iter      E             dE          RMSdq      gap      omega  full diag
   1    -28.6764303 -0.286764E+02  0.652E-02    2.36       0.0  T
   2    -28.6764344 -0.403562E-05  0.371E-02    2.36       1.0  T
   3    -28.6764296  0.471883E-05  0.255E-02    2.35       1.0  T
   4    -28.6764377 -0.803487E-05  0.708E-03    2.35       3.3  T
   5    -28.6764380 -0.319285E-06  0.322E-03    2.35       7.3  T
   6    -28.6764380 -0.397334E-07  0.128E-03    2.35      18.4  T
   7    -28.6764380 -0.500285E-08  0.471E-04    2.35      50.0  T
   8    -28.6764380 -0.342048E-09  0.255E-04    2.35      92.4  T
     SCC iter.                  ...        0 min,  3.058 sec
     gradient                   ...        0 min,  0.261 sec
 * total energy  :   -28.3610021 Eh     change       -0.1330060E-03 Eh
   gradient norm :     0.0080108 Eh/α   predicted    -0.9629836E-04 ( -27.60%)
   displ. norm   :     0.2056006 α      lambda       -0.2218538E-03
   maximum displ.:     0.1349238 α      in ANC's #4, #1, #2, ...

........................................................................
.............................. CYCLE   26 ..............................
........................................................................

 iter      E             dE          RMSdq      gap      omega  full diag
   1    -28.6772507 -0.286773E+02  0.584E-02    2.38       0.0  T
   2    -28.6772568 -0.605919E-05  0.326E-02    2.37       1.0  T
   3    -28.6772548  0.204799E-05  0.198E-02    2.37       1.2  T
   4    -28.6772584 -0.360263E-05  0.778E-03    2.37       3.0  T
   5    -28.6772590 -0.679024E-06  0.269E-03    2.37       8.8  T
   6    -28.6772591 -0.317642E-07  0.121E-03    2.37      19.5  T
   7    -28.6772591 -0.482398E-08  0.347E-04    2.37      67.9  T
   8    -28.6772591 -0.366509E-09  0.192E-04    2.37     122.5  T
     SCC iter.                  ...        0 min,  1.291 sec
     gradient                   ...        0 min,  0.161 sec
 * total energy  :   -28.3611549 Eh     change       -0.1528055E-03 Eh
   gradient norm :     0.0048070 Eh/α   predicted    -0.1156144E-03 ( -24.34%)
   displ. norm   :     0.1516995 α      lambda       -0.1224867E-03
   maximum displ.:     0.0998755 α      in ANC's #4, #1, #3, ...

........................................................................
.............................. CYCLE   27 ..............................
........................................................................

 iter      E             dE          RMSdq      gap      omega  full diag
   1    -28.6779949 -0.286780E+02  0.454E-02    2.40       0.0  T
   2    -28.6779977 -0.283310E-05  0.252E-02    2.39       1.0  T
   3    -28.6779966  0.111591E-05  0.125E-02    2.39       1.9  T
   4    -28.6779980 -0.139765E-05  0.560E-03    2.39       4.2  T
   5    -28.6779984 -0.397243E-06  0.185E-03    2.39      12.7  T
   6    -28.6779984 -0.135418E-07  0.826E-04    2.39      28.5  T
   7    -28.6779984 -0.460899E-08  0.186E-04    2.39     126.9  T
     SCC iter.                  ...        0 min,  1.056 sec
     gradient                   ...        0 min,  0.056 sec
 * total energy  :   -28.3612462 Eh     change       -0.9130464E-04 Eh
   gradient norm :     0.0037767 Eh/α   predicted    -0.6265093E-04 ( -31.38%)
   displ. norm   :     0.1961819 α      lambda       -0.1197299E-03
   maximum displ.:     0.1318599 α      in ANC's #4, #1, #3, ...

........................................................................
.............................. CYCLE   28 ..............................
........................................................................

 iter      E             dE          RMSdq      gap      omega  full diag
   1    -28.6780605 -0.286781E+02  0.554E-02    2.41       0.0  T
   2    -28.6780634 -0.289783E-05  0.319E-02    2.41       1.0  T
   3    -28.6780600  0.334669E-05  0.175E-02    2.41       1.3  T
   4    -28.6780642 -0.418878E-05  0.557E-03    2.41       4.2  T
   5    -28.6780646 -0.337323E-06  0.193E-03    2.41      12.2  T
   6    -28.6780646 -0.148323E-07  0.812E-04    2.41      29.0  T
   7    -28.6780646 -0.375425E-08  0.205E-04    2.41     115.0  T
     SCC iter.                  ...        0 min,  0.733 sec
     gradient                   ...        0 min,  0.094 sec
 * total energy  :   -28.3613353 Eh     change       -0.8913140E-04 Eh
   gradient norm :     0.0050457 Eh/α   predicted    -0.6216975E-04 ( -30.25%)
   displ. norm   :     0.1858604 α      lambda       -0.1615313E-03
   maximum displ.:     0.1155928 α      in ANC's #3, #4, #1, ...

........................................................................
.............................. CYCLE   29 ..............................
........................................................................

 iter      E             dE          RMSdq      gap      omega  full diag
   1    -28.6803422 -0.286803E+02  0.681E-02    2.43       0.0  T
   2    -28.6803451 -0.285134E-05  0.383E-02    2.43       1.0  T
   3    -28.6803411  0.392301E-05  0.179E-02    2.43       1.3  T
   4    -28.6803457 -0.457609E-05  0.680E-03    2.43       3.5  T
   5    -28.6803461 -0.408176E-06  0.240E-03    2.43       9.8  T
   6    -28.6803461 -0.137745E-07  0.916E-04    2.43      25.7  T
   7    -28.6803461 -0.485045E-08  0.425E-04    2.43      55.4  T
     SCC iter.                  ...        0 min,  0.698 sec
     gradient                   ...        0 min,  0.157 sec
 * total energy  :   -28.3614013 Eh     change       -0.6599926E-04 Eh
   gradient norm :     0.0070594 Eh/α   predicted    -0.8355565E-04 (  26.60%)
   displ. norm   :     0.4198024 α      lambda       -0.2245114E-03
   maximum displ.:     0.2896371 α      in ANC's #4, #3, #1, ...

........................................................................
.............................. CYCLE   30 ..............................
........................................................................

 iter      E             dE          RMSdq      gap      omega  full diag
   1    -28.6741371 -0.286741E+02  0.129E-01    2.45       0.0  T
   2    -28.6741556 -0.185174E-04  0.762E-02    2.45       1.0  T
   3    -28.6741331  0.225562E-04  0.527E-02    2.44       1.0  T
   4    -28.6741690 -0.359417E-04  0.122E-02    2.44       1.9  T
   5    -28.6741703 -0.128126E-05  0.447E-03    2.44       5.3  T
   6    -28.6741704 -0.827601E-07  0.192E-03    2.44      12.3  T
   7    -28.6741704 -0.123511E-07  0.527E-04    2.44      44.7  T
   8    -28.6741704 -0.843080E-09  0.254E-04    2.44      92.6  T
     SCC iter.                  ...        0 min,  2.780 sec
     gradient                   ...        0 min,  0.124 sec
 * total energy  :   -28.3613056 Eh     change        0.9568912E-04 Eh
   gradient norm :     0.0121646 Eh/α   predicted    -0.1320384E-03 (-237.99%)
   displ. norm   :     0.2807731 α      lambda       -0.4820517E-03
   maximum displ.:     0.1939418 α      in ANC's #4, #1, #3, ...

........................................................................
.............................. CYCLE   31 ..............................
........................................................................

 iter      E             dE          RMSdq      gap      omega  full diag
   1    -28.6788949 -0.286789E+02  0.912E-02    2.42       0.0  T
   2    -28.6789046 -0.968510E-05  0.522E-02    2.42       1.0  T
   3    -28.6788954  0.914894E-05  0.309E-02    2.42       1.0  T
   4    -28.6789075 -0.120312E-04  0.955E-03    2.42       2.5  T
   5    -28.6789085 -0.100758E-05  0.311E-03    2.42       7.6  T
   6    -28.6789085 -0.349421E-07  0.136E-03    2.42      17.4  T
   7    -28.6789085 -0.816917E-08  0.384E-04    2.42      61.5  T
   8    -28.6789085 -0.407603E-09  0.180E-04    2.42     130.9  T
     SCC iter.                  ...        0 min,  1.025 sec
     gradient                   ...        0 min,  0.062 sec
 * total energy  :   -28.3614883 Eh     change       -0.1826986E-03 Eh
   gradient norm :     0.0026063 Eh/α   predicted    -0.2600293E-03 (  42.33%)
   displ. norm   :     0.0446725 α      lambda       -0.1776558E-04
   maximum displ.:     0.0272530 α      in ANC's #3, #4, #2, ...

........................................................................
.............................. CYCLE   32 ..............................
........................................................................

 iter      E             dE          RMSdq      gap      omega  full diag
   1    -28.6786347 -0.286786E+02  0.161E-02    2.42       0.0  T
   2    -28.6786350 -0.226373E-06  0.101E-02    2.42       2.3  T
   3    -28.6786349  0.133755E-07  0.681E-03    2.42       3.5  T
   4    -28.6786354 -0.492141E-06  0.156E-03    2.42      15.1  T
   5    -28.6786355 -0.201859E-07  0.617E-04    2.42      38.2  T
   6    -28.6786355 -0.154067E-08  0.178E-04    2.42     132.7  T
     SCC iter.                  ...        0 min,  0.696 sec
     gradient                   ...        0 min,  0.002 sec
 * total energy  :   -28.3615030 Eh     change       -0.1466648E-04 Eh
   gradient norm :     0.0015239 Eh/α   predicted    -0.8899979E-05 ( -39.32%)
   displ. norm   :     0.1747290 α      lambda       -0.2807746E-04
   maximum displ.:     0.1123878 α      in ANC's #3, #4, #2, ...

........................................................................
.............................. CYCLE   33 ..............................
........................................................................

 iter      E             dE          RMSdq      gap      omega  full diag
   1    -28.6775001 -0.286775E+02  0.557E-02    2.42       0.0  T
   2    -28.6775031 -0.304181E-05  0.351E-02    2.43       1.0  T
   3    -28.6775024  0.704655E-06  0.238E-02    2.42       1.0  T
   4    -28.6775084 -0.600606E-05  0.542E-03    2.43       4.3  T
   5    -28.6775087 -0.271811E-06  0.196E-03    2.43      12.1  T
   6    -28.6775087 -0.179568E-07  0.637E-04    2.43      37.0  T
   7    -28.6775087 -0.821583E-09  0.200E-04    2.43     117.9  T
     SCC iter.                  ...        0 min,  2.190 sec
     gradient                   ...        0 min,  0.170 sec
 * total energy  :   -28.3615143 Eh     change       -0.1133372E-04 Eh
   gradient norm :     0.0027621 Eh/α   predicted    -0.1422903E-04 (  25.55%)
   displ. norm   :     0.0298835 α      lambda       -0.1169044E-04
   maximum displ.:     0.0201088 α      in ANC's #4, #3, #1, ...

........................................................................
.............................. CYCLE   34 ..............................
........................................................................

 iter      E             dE          RMSdq      gap      omega  full diag
   1    -28.6781553 -0.286782E+02  0.116E-02    2.43       0.0  T
   2    -28.6781555 -0.170763E-06  0.721E-03    2.43       3.3  T
   3    -28.6781554  0.700276E-08  0.486E-03    2.43       4.8  T
   4    -28.6781557 -0.252958E-06  0.120E-03    2.43      19.7  T
   5    -28.6781557 -0.107095E-07  0.470E-04    2.43      50.2  T
   6    -28.6781557 -0.828777E-09  0.170E-04    2.43     138.3  T
     SCC iter.                  ...        0 min,  0.785 sec
     gradient                   ...        0 min,  0.137 sec
 * total energy  :   -28.3615227 Eh     change       -0.8342529E-05 Eh
   gradient norm :     0.0015321 Eh/α   predicted    -0.5850425E-05 ( -29.87%)
   displ. norm   :     0.0322915 α      lambda       -0.9619034E-05
   maximum displ.:     0.0199733 α      in ANC's #2, #1, #4, ...

........................................................................
.............................. CYCLE   35 ..............................
........................................................................

 iter      E             dE          RMSdq      gap      omega  full diag
   1    -28.6788257 -0.286788E+02  0.154E-02    2.43       0.0  T
   2    -28.6788259 -0.259956E-06  0.948E-03    2.43       2.5  T
   3    -28.6788259  0.117253E-07  0.638E-03    2.43       3.7  T
   4    -28.6788264 -0.460391E-06  0.161E-03    2.43      14.7  T
   5    -28.6788264 -0.168563E-07  0.715E-04    2.43      33.0  T
   6    -28.6788264 -0.149789E-08  0.221E-04    2.43     106.8  T
     SCC iter.                  ...        0 min,  1.634 sec
     gradient                   ...        0 min,  0.181 sec
 * total energy  :   -28.3615319 Eh     change       -0.9230247E-05 Eh
   gradient norm :     0.0009542 Eh/α   predicted    -0.4813311E-05 ( -47.85%)
   displ. norm   :     0.0671124 α      lambda       -0.9111892E-05
   maximum displ.:     0.0470673 α      in ANC's #2, #3, #1, ...

........................................................................
.............................. CYCLE   36 ..............................
........................................................................

 iter      E             dE          RMSdq      gap      omega  full diag
   1    -28.6789620 -0.286790E+02  0.172E-02    2.43       0.0  T
   2    -28.6789621 -0.749381E-07  0.103E-02    2.43       2.3  T
   3    -28.6789616  0.483510E-06  0.571E-03    2.43       4.1  T
   4    -28.6789622 -0.557207E-06  0.970E-04    2.43      24.3  T
   5    -28.6789622 -0.855420E-08  0.429E-04    2.43      54.9  T
     SCC iter.                  ...        0 min,  1.414 sec
     gradient                   ...        0 min,  0.100 sec
 * total energy  :   -28.3615440 Eh     change       -0.1210475E-04 Eh
   gradient norm :     0.0011417 Eh/α   predicted    -0.4565852E-05 ( -62.28%)
   displ. norm   :     0.3332349 α      lambda       -0.3794841E-04
   maximum displ.:     0.2244124 α      in ANC's #2, #3, #4, ...

........................................................................
.............................. CYCLE   37 ..............................
........................................................................

 iter      E             dE          RMSdq      gap      omega  full diag
   1    -28.6769352 -0.286769E+02  0.830E-02    2.42       0.0  T
   2    -28.6769369 -0.168029E-05  0.494E-02    2.42       1.0  T
   3    -28.6769357  0.119373E-05  0.101E-02    2.43       2.3  T
   4    -28.6769369 -0.118764E-05  0.459E-03    2.42       5.1  T
   5    -28.6769372 -0.316679E-06  0.153E-03    2.42      15.4  T
   6    -28.6769372 -0.106854E-07  0.624E-04    2.42      37.8  T
   7    -28.6769372 -0.220351E-08  0.233E-04    2.42     101.2  T
     SCC iter.                  ...        0 min,  0.800 sec
     gradient                   ...        0 min,  0.081 sec
 * total energy  :   -28.3615473 Eh     change       -0.3313626E-05 Eh
   gradient norm :     0.0050557 Eh/α   predicted    -0.1990910E-04 ( 500.83%)
   displ. norm   :     0.0850504 α      lambda       -0.5782867E-04
   maximum displ.:     0.0577000 α      in ANC's #3, #2, #4, ...

........................................................................
.............................. CYCLE   38 ..............................
........................................................................

 iter      E             dE          RMSdq      gap      omega  full diag
   1    -28.6784458 -0.286784E+02  0.277E-02    2.42       0.0  T
   2    -28.6784465 -0.715343E-06  0.157E-02    2.42       1.5  T
   3    -28.6784465 -0.185050E-09  0.439E-03    2.42       5.4  T
   4    -28.6784465 -0.879665E-08  0.177E-03    2.42      13.3  T
   5    -28.6784466 -0.439051E-07  0.826E-04    2.42      28.5  T
   6    -28.6784466 -0.552001E-08  0.226E-04    2.42     104.4  T
     SCC iter.                  ...        0 min,  0.712 sec
     gradient                   ...        0 min,  0.016 sec
 * total energy  :   -28.3615749 Eh     change       -0.2762524E-04 Eh
   gradient norm :     0.0010146 Eh/α   predicted    -0.2912432E-04 (   5.43%)
   displ. norm   :     0.0486844 α      lambda       -0.5716418E-05
   maximum displ.:     0.0313897 α      in ANC's #3, #2, #1, ...

........................................................................
.............................. CYCLE   39 ..............................
........................................................................

 iter      E             dE          RMSdq      gap      omega  full diag
   1    -28.6787062 -0.286787E+02  0.138E-02    2.42       0.0  T
   2    -28.6787063 -0.107039E-06  0.787E-03    2.42       3.0  T
   3    -28.6787062  0.546439E-07  0.255E-03    2.42       9.2  T
   4    -28.6787063 -0.535993E-07  0.121E-03    2.42      19.4  T
   5    -28.6787063 -0.196747E-07  0.434E-04    2.42      54.4  T
   6    -28.6787063 -0.958373E-09  0.139E-04    2.42     170.1  T
     SCC iter.                  ...        0 min,  0.647 sec
     gradient                   ...        0 min,  0.004 sec
 * total energy  :   -28.3615820 Eh     change       -0.7020986E-05 Eh
   gradient norm :     0.0007456 Eh/α   predicted    -0.2860110E-05 ( -59.26%)
   displ. norm   :     0.1972124 α      lambda       -0.1497978E-04
   maximum displ.:     0.1339280 α      in ANC's #3, #2, #1, ...

........................................................................
.............................. CYCLE   40 ..............................
........................................................................

 iter      E             dE          RMSdq      gap      omega  full diag
   1    -28.6782916 -0.286783E+02  0.510E-02    2.41       0.0  T
   2    -28.6782923 -0.705958E-06  0.300E-02    2.41       1.0  T
   3    -28.6782915  0.817793E-06  0.832E-03    2.41       2.8  T
   4    -28.6782924 -0.879274E-06  0.322E-03    2.41       7.3  T
   5    -28.6782925 -0.118361E-06  0.132E-03    2.41      17.9  T
   6    -28.6782925 -0.113254E-07  0.405E-04    2.41      58.1  T
   7    -28.6782925 -0.119746E-08  0.149E-04    2.41     157.7  T
     SCC iter.                  ...        0 min,  0.837 sec
     gradient                   ...        0 min,  0.144 sec
 * total energy  :   -28.3615926 Eh     change       -0.1065572E-04 Eh
   gradient norm :     0.0021914 Eh/α   predicted    -0.7619649E-05 ( -28.49%)
   displ. norm   :     0.0111952 α      lambda       -0.8906702E-05
   maximum displ.:     0.0081193 α      in ANC's #4, #27, #32, ...

........................................................................
.............................. CYCLE   41 ..............................
........................................................................

 iter      E             dE          RMSdq      gap      omega  full diag
   1    -28.6787656 -0.286788E+02  0.638E-03    2.41       0.0  T
   2    -28.6787657 -0.599547E-07  0.366E-03    2.41       6.4  T
   3    -28.6787657  0.173983E-07  0.175E-03    2.41      13.5  T
   4    -28.6787657 -0.208518E-07  0.682E-04    2.41      34.6  T
   5    -28.6787657 -0.573435E-08  0.270E-04    2.41      87.2  T
     SCC iter.                  ...        0 min,  0.946 sec
     gradient                   ...        0 min,  0.192 sec
 * total energy  :   -28.3615992 Eh     change       -0.6594829E-05 Eh
   gradient norm :     0.0012084 Eh/α   predicted    -0.4455155E-05 ( -32.44%)
   displ. norm   :     0.1003709 α      lambda       -0.1086992E-04
   maximum displ.:     0.0694083 α      in ANC's #3, #2, #4, ...

........................................................................
.............................. CYCLE   42 ..............................
........................................................................

 iter      E             dE          RMSdq      gap      omega  full diag
   1    -28.6792206 -0.286792E+02  0.271E-02    2.40       0.0  T
   2    -28.6792207 -0.156737E-06  0.162E-02    2.40       1.5  T
   3    -28.6792203  0.388783E-06  0.571E-03    2.40       4.1  T
   4    -28.6792208 -0.440711E-06  0.147E-03    2.40      16.0  T
   5    -28.6792208 -0.135840E-07  0.861E-04    2.40      27.4  T
   6    -28.6792208 -0.726539E-08  0.221E-04    2.40     106.9  T
     SCC iter.                  ...        0 min,  0.629 sec
     gradient                   ...        0 min,  0.141 sec
 * total energy  :   -28.3616107 Eh     change       -0.1145963E-04 Eh
   gradient norm :     0.0015273 Eh/α   predicted    -0.5460804E-05 ( -52.35%)
   displ. norm   :     0.2339735 α      lambda       -0.1812515E-04
   maximum displ.:     0.1597006 α      in ANC's #3, #2, #4, ...
 * RMSD in coord.:     0.5148952 α      energy gain  -0.1342649E-02 Eh

generating ANC from exact Hessian ...
Using Lindh-Hessian (1995)
 Shifting diagonal of input Hessian by    6.6941046112782808E-003
 Lowest  eigenvalues of input Hessian
    0.000000    0.000000    0.000000    0.000000    0.000000    0.000000
    0.010000    0.013827    0.015396    0.017260    0.021399    0.025352
    0.026381    0.032611    0.037246    0.046647    0.058936    0.071039
 Highest eigenvalues
    1.362781    1.508486    1.736852    1.928080    2.048377    2.455193


........................................................................
.............................. CYCLE   43 ..............................
........................................................................

 iter      E             dE          RMSdq      gap      omega  full diag
   1    -28.6783993 -0.286784E+02  0.607E-02    2.40       0.0  T
   2    -28.6784001 -0.740826E-06  0.358E-02    2.39       1.0  T
   3    -28.6783998  0.231048E-06  0.689E-03    2.40       3.4  T
   4    -28.6784002 -0.372149E-06  0.245E-03    2.39       9.6  T
   5    -28.6784002 -0.180405E-07  0.922E-04    2.40      25.6  T
   6    -28.6784002 -0.304945E-08  0.351E-04    2.40      67.2  T
     SCC iter.                  ...        0 min,  0.669 sec
     gradient                   ...        0 min,  0.096 sec
 * total energy  :   -28.3616223 Eh     change       -0.1161764E-04 Eh
   gradient norm :     0.0033208 Eh/α   predicted     0.0000000E+00 (-100.00%)
   displ. norm   :     0.0246602 α      lambda       -0.3102692E-04
   maximum displ.:     0.0163370 α      in ANC's #1, #5, #4, ...

........................................................................
.............................. CYCLE   44 ..............................
........................................................................

 iter      E             dE          RMSdq      gap      omega  full diag
   1    -28.6788973 -0.286789E+02  0.151E-02    2.40       0.0  T
   2    -28.6788975 -0.233455E-06  0.848E-03    2.40       2.8  T
   3    -28.6788974  0.116071E-06  0.376E-03    2.40       6.3  T
   4    -28.6788975 -0.133351E-06  0.159E-03    2.40      14.8  T
   5    -28.6788975 -0.345846E-07  0.459E-04    2.40      51.4  T
   6    -28.6788975 -0.209205E-09  0.212E-04    2.40     111.0  T
     SCC iter.                  ...        0 min,  1.421 sec
     gradient                   ...        0 min,  0.146 sec
 * total energy  :   -28.3616436 Eh     change       -0.2130564E-04 Eh
   gradient norm :     0.0011402 Eh/α   predicted    -0.1552318E-04 ( -27.14%)
   displ. norm   :     0.0549587 α      lambda       -0.1479920E-04
   maximum displ.:     0.0377610 α      in ANC's #1, #4, #5, ...

........................................................................
.............................. CYCLE   45 ..............................
........................................................................

 iter      E             dE          RMSdq      gap      omega  full diag
   1    -28.6792077 -0.286792E+02  0.215E-02    2.40       0.0  T
   2    -28.6792081 -0.439757E-06  0.127E-02    2.40       1.9  T
   3    -28.6792076  0.534763E-06  0.799E-03    2.40       3.0  T
   4    -28.6792084 -0.835533E-06  0.220E-03    2.40      10.7  T
   5    -28.6792085 -0.519482E-07  0.719E-04    2.40      32.8  T
   6    -28.6792085 -0.191828E-08  0.269E-04    2.40      87.7  T
     SCC iter.                  ...        0 min,  1.365 sec
     gradient                   ...        0 min,  0.081 sec
 * total energy  :   -28.3616568 Eh     change       -0.1318693E-04 Eh
   gradient norm :     0.0015247 Eh/α   predicted    -0.7410160E-05 ( -43.81%)
   displ. norm   :     0.0516489 α      lambda       -0.9055812E-05
   maximum displ.:     0.0334401 α      in ANC's #1, #4, #5, ...

........................................................................
.............................. CYCLE   46 ..............................
........................................................................

 iter      E             dE          RMSdq      gap      omega  full diag
   1    -28.6790254 -0.286790E+02  0.172E-02    2.41       0.0  T
   2    -28.6790257 -0.307287E-06  0.104E-02    2.41       2.3  T
   3    -28.6790254  0.319768E-06  0.689E-03    2.41       3.4  T
   4    -28.6790260 -0.590989E-06  0.168E-03    2.41      14.0  T
   5    -28.6790260 -0.322273E-07  0.532E-04    2.41      44.3  T
   6    -28.6790260 -0.127494E-08  0.190E-04    2.41     123.8  T
     SCC iter.                  ...        0 min,  0.368 sec
     gradient                   ...        0 min,  0.002 sec
 * total energy  :   -28.3616683 Eh     change       -0.1147142E-04 Eh
   gradient norm :     0.0012902 Eh/α   predicted    -0.4534006E-05 ( -60.48%)
   displ. norm   :     0.1207874 α      lambda       -0.1707704E-04
   maximum displ.:     0.0727347 α      in ANC's #1, #4, #3, ...

........................................................................
.............................. CYCLE   47 ..............................
........................................................................

 iter      E             dE          RMSdq      gap      omega  full diag
   1    -28.6785069 -0.286785E+02  0.378E-02    2.41       0.0  T
   2    -28.6785082 -0.121826E-05  0.227E-02    2.41       1.0  T
   3    -28.6785061  0.206057E-05  0.155E-02    2.41       1.5  T
   4    -28.6785094 -0.326096E-05  0.319E-03    2.41       7.4  T
   5    -28.6785095 -0.107139E-06  0.107E-03    2.41      22.1  T
   6    -28.6785095 -0.530136E-08  0.411E-04    2.41      57.4  T
   7    -28.6785095 -0.379956E-09  0.123E-04    2.41     191.9  T
     SCC iter.                  ...        0 min,  0.744 sec
     gradient                   ...        0 min,  0.005 sec
 * total energy  :   -28.3616850 Eh     change       -0.1674227E-04 Eh
   gradient norm :     0.0010569 Eh/α   predicted    -0.8593358E-05 ( -48.67%)
   displ. norm   :     0.0752865 α      lambda       -0.6120408E-05
   maximum displ.:     0.0431402 α      in ANC's #1, #4, #3, ...

........................................................................
.............................. CYCLE   48 ..............................
........................................................................

 iter      E             dE          RMSdq      gap      omega  full diag
   1    -28.6784597 -0.286785E+02  0.222E-02    2.41       0.0  T
   2    -28.6784599 -0.230341E-06  0.132E-02    2.41       1.8  T
   3    -28.6784589  0.933225E-06  0.877E-03    2.41       2.7  T
   4    -28.6784602 -0.120569E-05  0.147E-03    2.41      16.0  T
   5    -28.6784602 -0.205131E-07  0.560E-04    2.41      42.1  T
   6    -28.6784602 -0.172112E-08  0.209E-04    2.41     113.0  T
     SCC iter.                  ...        0 min,  0.596 sec
     gradient                   ...        0 min,  0.179 sec
 * total energy  :   -28.3616917 Eh     change       -0.6709617E-05 Eh
   gradient norm :     0.0011731 Eh/α   predicted    -0.3066417E-05 ( -54.30%)
   displ. norm   :     0.0752294 α      lambda       -0.6377129E-05
   maximum displ.:     0.0418905 α      in ANC's #4, #1, #2, ...

........................................................................
.............................. CYCLE   49 ..............................
........................................................................

 iter      E             dE          RMSdq      gap      omega  full diag
   1    -28.6786305 -0.286786E+02  0.222E-02    2.41       0.0  T
   2    -28.6786307 -0.167781E-06  0.129E-02    2.41       1.8  T
   3    -28.6786302  0.542226E-06  0.679E-03    2.41       3.5  T
   4    -28.6786308 -0.643319E-06  0.160E-03    2.41      14.7  T
   5    -28.6786308 -0.328363E-07  0.592E-04    2.41      39.8  T
   6    -28.6786308 -0.244671E-08  0.171E-04    2.41     138.1  T
     SCC iter.                  ...        0 min,  1.579 sec
     gradient                   ...        0 min,  0.168 sec
 * total energy  :   -28.3616983 Eh     change       -0.6616500E-05 Eh
   gradient norm :     0.0009275 Eh/α   predicted    -0.3197123E-05 ( -51.68%)
   displ. norm   :     0.0454645 α      lambda       -0.3678114E-05
   maximum displ.:     0.0264587 α      in ANC's #2, #3, #4, ...

........................................................................
.............................. CYCLE   50 ..............................
........................................................................

 iter      E             dE          RMSdq      gap      omega  full diag
   1    -28.6788202 -0.286788E+02  0.135E-02    2.40       0.0  T
   2    -28.6788203 -0.962352E-07  0.790E-03    2.40       3.0  T
   3    -28.6788202  0.562788E-07  0.339E-03    2.40       6.9  T
   4    -28.6788203 -0.908462E-07  0.616E-04    2.40      38.2  T
   5    -28.6788203 -0.624294E-09  0.238E-04    2.40      99.0  T
     SCC iter.                  ...        0 min,  0.869 sec
     gradient                   ...        0 min,  0.002 sec
 * total energy  :   -28.3617023 Eh     change       -0.3931923E-05 Eh
   gradient norm :     0.0005384 Eh/α   predicted    -0.1840107E-05 ( -53.20%)
   displ. norm   :     0.0502077 α      lambda       -0.2971356E-05
   maximum displ.:     0.0336629 α      in ANC's #2, #3, #4, ...

   *** GEOMETRY OPTIMIZATION CONVERGED AFTER 50 ITERATIONS ***

------------------------------------------------------------------------
 total energy gain   :        -0.0350995 Eh      -22.0253 kcal/mol
 total RMSD          :         1.1440127 a0        0.6054 Å
 total power (kW/mol):        -1.8430746 (step)   -1.0846 (real)
------------------------------------------------------------------------

 ANCopt (total)                0 d,  0 h,  1 min, 24.968 sec
 optimizer setup                ...        0 min,  0.000 sec (  0.000%)
 model hessian                  ...        0 min,  0.012 sec (  0.014%)
 ANC generation                 ...        0 min,  0.001 sec (  0.002%)
 coordinate transformation      ...        0 min,  0.001 sec (  0.001%)
 single point calculation       ...        1 min, 24.275 sec ( 99.184%)
 optimization log               ...        0 min,  0.027 sec (  0.031%)
 hessian update                 ...        0 min,  0.609 sec (  0.717%)
 rational function              ...        0 min,  0.018 sec (  0.022%)

================
 final structure:
================
18
 xtb: 6.7.1 (edcfbbe)
C           -2.94199435093075        0.33475462314675       -0.21321983922398
C           -1.47009455210100        0.13489363175576       -0.14198312974810
C           -0.78730961804364       -0.96604229463803       -0.59744265063544
C            0.59203325824639       -1.08036492447199       -0.53323071890750
N            1.41322185320595       -0.01285859424440       -0.35080816605890
C            2.68056810000515       -0.16646453485447        0.32849686301634
N            0.81269799022257        1.22592187883228       -0.33945704965634
S           -0.55187350112244        1.30124731077821        0.84573450834371
O           -0.04243542475199        0.56501522585664        2.01118174236972
H           -3.17125183300830        1.39348069507108       -0.33418728168320
H           -3.43372965990429       -0.00663567289462        0.70203077568620
H           -3.36674415027236       -0.21792482827010       -1.04961766388401
H           -1.34221645040051       -1.80583809363131       -0.99511795002674
H            1.08973956926989       -2.02511948924720       -0.67199171347021
H            3.08360507301611       -1.15231852005135        0.11064822290540
H            3.37885583827664        0.59257287350099       -0.03018307627329
H            2.55721805038506       -0.06255691840438        1.41119094461235
H            1.49971080790751        1.94823763176570       -0.15204381736576

 Bond Distances (Angstroems)
 ---------------------------
C1-C2=1.4871         C1-H10=1.0900        C1-H11=1.0936        C1-H12=1.0888        C2-C1=1.4871         C2-C3=1.3732         
C2-S8=1.7830         C3-C2=1.3732         C3-C4=1.3856         C3-H13=1.0823        C4-C3=1.3856         C4-N5=1.3591         
C4-H14=1.0768        N5-C4=1.3591         N5-C6=1.4461         N5-N7=1.3767         C6-N5=1.4461         C6-H15=1.0871        
C6-H16=1.0920        C6-H17=1.0946        N7-N5=1.3767         N7-S8=1.8090         N7-H18=1.0143        S8-C2=1.7830         
S8-N7=1.8090         S8-O9=1.4696         O9-S8=1.4696         H10-C1=1.0900        H11-C1=1.0936        H12-C1=1.0888        
H13-C3=1.0823        H14-C4=1.0768        H15-C6=1.0871        H16-C6=1.0920        H17-C6=1.0946        H18-N7=1.0143        
 C  H  Rav=1.0882 sigma=0.0056  Rmin=1.0768  Rmax=1.0946     8
 C  C  Rav=1.4153 sigma=0.0510  Rmin=1.3732  Rmax=1.4871     3
 N  H  Rav=1.0143 sigma=0.0000  Rmin=1.0143  Rmax=1.0143     1
 N  C  Rav=1.4026 sigma=0.0435  Rmin=1.3591  Rmax=1.4461     2
 N  N  Rav=1.3767 sigma=0.0000  Rmin=1.3767  Rmax=1.3767     1
 S  C  Rav=1.7830 sigma=0.0000  Rmin=1.7830  Rmax=1.7830     1
 S  N  Rav=1.8090 sigma=0.0000  Rmin=1.8090  Rmax=1.8090     1
 S  O  Rav=1.4696 sigma=0.0000  Rmin=1.4696  Rmax=1.4696     1

 selected bond angles (degree)
 --------------------
H10-C1-C2=110.12               H11-C1-C2=111.28               H11-C1-H10=107.55              H12-C1-C2=110.78               
H12-C1-H10=109.01              H12-C1-H11=108.00              C3-C2-C1=125.73                S8-C2-C1=116.64                
S8-C2-C3=116.88                C4-C3-C2=123.08                H13-C3-C2=119.28               H13-C3-C4=117.61               
N5-C4-C3=122.88                H14-C4-C3=121.77               H14-C4-N5=115.29               C6-N5-C4=120.61                
N7-N5-C4=116.38                N7-N5-C6=118.29                H15-C6-N5=109.09               H16-C6-N5=109.41               
H16-C6-H15=109.11              H17-C6-N5=110.84               H17-C6-H15=109.03              H17-C6-H16=109.33              
S8-N7-N5=111.83                H18-N7-N5=110.29               H18-N7-S8=111.11               N7-S8-C2= 89.90                
O9-S8-C2=106.86                O9-S8-N7=103.72                

 selected dihedral angles (degree)
 ---------------------------------
C3-C2-C1-H10=212.11           C3-C2-C1-H11= 92.95           C3-C2-C1-H12=332.78           S8-C2-C1-H10= 42.40           
S8-C2-C1-H11=283.23           S8-C2-C1-H12=163.06           C4-C3-C2-C1=178.33            C4-C3-C2-S8=348.02            
H13-C3-C2-C1=356.05           H13-C3-C2-S8=165.75           N5-C4-C3-C2=342.23            N5-C4-C3-H13=164.46           
H14-C4-C3-C2=165.15           H14-C4-C3-H13=347.39          C6-N5-C4-C3=150.10            C6-N5-C4-H14=327.34           
N7-N5-C4-C3=354.85            N7-N5-C4-H14=172.10           H15-C6-N5-C4= 33.05           H15-C6-N5-N7=187.83           
H16-C6-N5-C4=152.35           H16-C6-N5-N7=307.13           H17-C6-N5-C4=272.99           H17-C6-N5-N7= 67.77           
S8-N7-N5-C4= 53.01            S8-N7-N5-C6=257.17            H18-N7-N5-C4=177.20           H18-N7-N5-C6= 21.36           
N7-S8-C2-C1=216.17            N7-S8-C2-C3= 45.52            O9-S8-C2-C1=111.85            O9-S8-C2-C3=301.20            
C2-S8-N7-N5=293.35            C2-S8-N7-H18=169.62           O9-S8-N7-N5= 40.70            O9-S8-N7-H18=276.97           
           -------------------------------------------------
          |                Final Singlepoint                |
           -------------------------------------------------

          ...................................................
          :                      SETUP                      :
          :.................................................:
          :  # basis functions                  51          :
          :  # atomic orbitals                  50          :
          :  # shells                           28          :
          :  # electrons                        51          :
          :  max. iterations                   250          :
          :  Hamiltonian                  GFN2-xTB          :
          :  restarted?                      false          :
          :  GBSA solvation                  false          :
          :  PC potential                    false          :
          :  electronic temp.          300.0000000     K    :
          :  accuracy                    1.0000000          :
          :  -> integral cutoff          0.2500000E+02      :
          :  -> integral neglect         0.1000000E-07      :
          :  -> SCF convergence          0.1000000E-05 Eh   :
          :  -> wf. convergence          0.1000000E-03 e    :
          :  Broyden damping             0.4000000          :
          :  net charge                          0          :
          :  unpaired electrons                  0          :
          ...................................................

 iter      E             dE          RMSdq      gap      omega  full diag
   1    -28.6788203 -0.286788E+02  0.865E-05    2.40       0.0  T
   2    -28.6788203 -0.136247E-10  0.585E-05    2.40     402.7  T
   3    -28.6788203 -0.214939E-10  0.380E-05    2.40     620.9  T

   *** convergence criteria satisfied after 3 iterations ***

         #    Occupation            Energy/Eh            Energy/eV
      -------------------------------------------------------------
         1        2.0000           -0.7425827             -20.2067
       ...           ...                  ...                  ...
        20        2.0000           -0.4548877             -12.3781
        21        2.0000           -0.4457071             -12.1283
        22        2.0000           -0.4239640             -11.5366
        23        2.0000           -0.4126284             -11.2282
        24        2.0000           -0.3791055             -10.3160
        25        2.0000           -0.3668032              -9.9812
        26        1.0000           -0.2937395              -7.9931 (HOMO)
        27                         -0.2054971              -5.5919 (LUMO)
        28                         -0.1694005              -4.6096
        29                         -0.1327220              -3.6115
        30                         -0.0502556              -1.3675
        31                         -0.0122420              -0.3331
       ...                                ...                  ...
        50                          0.9166646              24.9437
      -------------------------------------------------------------
                  HL-Gap            0.0882424 Eh            2.4012 eV
             Fermi-level           -0.2899448 Eh           -7.8898 eV

 SCC (total)                   0 d,  0 h,  0 min,  0.273 sec
 SCC setup                      ...        0 min,  0.004 sec (  1.587%)
 Dispersion                     ...        0 min,  0.038 sec ( 14.093%)
 classical contributions        ...        0 min,  0.009 sec (  3.198%)
 integral evaluation            ...        0 min,  0.001 sec (  0.263%)
 iterations                     ...        0 min,  0.136 sec ( 49.778%)
 molecular gradient             ...        0 min,  0.084 sec ( 30.918%)
 printout                       ...        0 min,  0.000 sec (  0.155%)

         :::::::::::::::::::::::::::::::::::::::::::::::::::::
         ::                     SUMMARY                     ::
         :::::::::::::::::::::::::::::::::::::::::::::::::::::
         :: total energy             -28.361702254285 Eh    ::
         :: gradient norm              0.000538787523 Eh/a0 ::
         :: HOMO-LUMO gap              2.401197917430 eV    ::
         ::.................................................::
         :: SCC energy               -28.678788960174 Eh    ::
         :: -> isotropic ES            0.047128751233 Eh    ::
         :: -> anisotropic ES          0.002164839277 Eh    ::
         :: -> anisotropic XC          0.015103776866 Eh    ::
         :: -> dispersion             -0.016397966557 Eh    ::
         :: repulsion energy           0.317086705889 Eh    ::
         :: add. restraining           0.000000000000 Eh    ::
         :: total charge              -0.000000000000 e     ::
         :::::::::::::::::::::::::::::::::::::::::::::::::::::

           -------------------------------------------------
          |                Property Printout                |
           -------------------------------------------------

    * Orbital Energies and Occupations

         #    Occupation            Energy/Eh            Energy/eV
      -------------------------------------------------------------
         1        2.0000           -0.7425827             -20.2067
       ...           ...                  ...                  ...
        14        2.0000           -0.5018322             -13.6555
        15        2.0000           -0.4966101             -13.5134
        16        2.0000           -0.4911469             -13.3648
        17        2.0000           -0.4795656             -13.0496
        18        2.0000           -0.4716009             -12.8329
        19        2.0000           -0.4631648             -12.6034
        20        2.0000           -0.4548877             -12.3781
        21        2.0000           -0.4457071             -12.1283
        22        2.0000           -0.4239640             -11.5366
        23        2.0000           -0.4126284             -11.2282
        24        2.0000           -0.3791055             -10.3160
        25        2.0000           -0.3668032              -9.9812
        26        1.0000           -0.2937395              -7.9931 (HOMO)
        27                         -0.2054971              -5.5919 (LUMO)
        28                         -0.1694005              -4.6096
        29                         -0.1327220              -3.6115
        30                         -0.0502556              -1.3675
        31                         -0.0122420              -0.3331
        32                          0.0136323               0.3710
        33                          0.0564008               1.5347
        34                          0.0983238               2.6755
        35                          0.1155371               3.1439
        36                          0.1237078               3.3663
        37                          0.1491852               4.0595
       ...                                ...                  ...
        50                          0.9166646              24.9437
      -------------------------------------------------------------
                  HL-Gap            0.0882424 Eh            2.4012 eV
             Fermi-level           -0.2899448 Eh           -7.8898 eV

     #   Z          covCN         q      C6AA      α(0)
     1   6 C        3.780    -0.108    22.585     6.770
     2   6 C        2.942    -0.057    29.408     8.894
     3   6 C        2.956    -0.048    29.190     8.862
     4   6 C        2.858    -0.013    28.335     8.725
     5   7 N        2.854     0.038    20.577     6.737
     6   6 C        3.695    -0.054    21.726     6.668
     7   7 N        2.766    -0.249    26.482     7.643
     8  16 S        2.881     0.448   124.114    18.750
     9   8 O        0.859    -0.509    23.976     6.565
    10   1 H        0.925     0.043     2.412     2.429
    11   1 H        0.924     0.050     2.323     2.384
    12   1 H        0.925     0.047     2.356     2.400
    13   1 H        0.925     0.033     2.541     2.493
    14   1 H        0.926     0.036     2.509     2.477
    15   1 H        0.925     0.063     2.161     2.299
    16   1 H        0.924     0.050     2.314     2.379
    17   1 H        0.924     0.070     2.083     2.257
    18   1 H        0.860     0.159     1.339     1.813

 Mol. C6AA /au·bohr⁶  :       4159.195494
 Mol. C8AA /au·bohr⁸  :     107945.948059
 Mol. α(0) /au        :        100.545148


Wiberg/Mayer (AO) data.
largest (>0.10) Wiberg bond orders for each atom

 ---------------------------------------------------------------------------
     #   Z sym  total        # sym  WBO       # sym  WBO       # sym  WBO
 ---------------------------------------------------------------------------
     1   6 C    3.996 --     2 C    1.041    12 H    0.979    10 H    0.976
                            11 H    0.961
     2   6 C    3.853 --     3 C    1.497     1 C    1.041     8 S    1.009
     3   6 C    3.986 --     2 C    1.497     4 C    1.392    13 H    0.956
     4   6 C    3.886 --     3 C    1.392     5 N    1.253    14 H    0.963
     5   7 N    3.522 --     4 C    1.253     7 N    1.063     6 C    0.992
     6   6 C    3.971 --     5 N    0.992    16 H    0.979    15 H    0.978
                            17 H    0.968
     7   7 N    3.138 --     5 N    1.063    18 H    0.946     8 S    0.890
     8  16 S    3.869 --     9 O    1.784     2 C    1.009     7 N    0.890
     9   8 O    2.004 --     8 S    1.784
    10   1 H    0.998 --     1 C    0.976
    11   1 H    0.997 --     1 C    0.961
    12   1 H    0.998 --     1 C    0.979
    13   1 H    0.998 --     3 C    0.956
    14   1 H    0.999 --     4 C    0.963
    15   1 H    0.996 --     6 C    0.978
    16   1 H    0.997 --     6 C    0.979
    17   1 H    0.995 --     6 C    0.968
    18   1 H    0.974 --     7 N    0.946
 ---------------------------------------------------------------------------

Topologies differ in total number of bonds
Writing topology from bond orders to xtbtopo.mol

molecular dipole:
                 x           y           z       tot (Debye)
 q only:        0.424       0.369      -1.000
   full:        0.667       0.096      -0.854       2.765
molecular quadrupole (traceless):
                xx          xy          yy          xz          yz          zz
 q only:        8.490      -1.424       3.019       0.441       0.172     -11.509
  q+dip:       10.424       0.222       3.262       0.806       0.918     -13.687
   full:       10.626       0.411       2.702       0.795       0.586     -13.328

           -------------------------------------------------
          |                Geometry Summary                 |
           -------------------------------------------------

      molecular mass/u    :      145.2027450
   center of mass at/Å    :       -0.0691555       0.3131555       0.2390410
  moments of inertia/u·Å² :        0.2028876E+03   0.3935173E+03   0.4967686E+03
rotational constants/cm⁻¹ :        0.8308852E-01   0.4283835E-01   0.3393458E-01

 * 17 selected distances

     #   Z          #   Z                                           value/Å
     1   6 C        2   6 C                                       1.4871142
     2   6 C        3   6 C                                       1.3732075
     3   6 C        4   6 C                                       1.3855612
     4   6 C        5   7 N                                       1.3591169
     5   7 N        6   6 C                                       1.4461041
     5   7 N        7   7 N                                       1.3767117
     2   6 C        8  16 S                                       1.7830024 (max)
     8  16 S        9   8 O                                       1.4696369
     1   6 C       10   1 H                                       1.0899969
     1   6 C       11   1 H                                       1.0936338
     1   6 C       12   1 H                                       1.0887739
     3   6 C       13   1 H                                       1.0822774
     4   6 C       14   1 H                                       1.0768136
     6   6 C       15   1 H                                       1.0871086
     6   6 C       16   1 H                                       1.0919684
     6   6 C       17   1 H                                       1.0946409
     7   7 N       18   1 H                                       1.0143227 (min)

 * 7 distinct bonds (by element types)

   Z      Z             #   av. dist./Å        max./Å        min./Å
   1 H    6 C           8     1.0881517     1.0946409     1.0768136
   6 C    6 C           3     1.4152943     1.4871142     1.3732075
   1 H    7 N           1     1.0143227     1.0143227     1.0143227
   6 C    7 N           2     1.4026105     1.4461041     1.3591169
   7 N    7 N           1     1.3767117     1.3767117     1.3767117
   6 C   16 S           1     1.7830024     1.7830024     1.7830024
   8 O   16 S           1     1.4696369     1.4696369     1.4696369


optimized geometry written to: xtbopt.xyz


           -------------------------------------------------
          | TOTAL ENERGY              -28.361702254285 Eh   |
          | GRADIENT NORM               0.000538787523 Eh/α |
          | HOMO-LUMO GAP               2.401197917430 eV   |
           -------------------------------------------------

------------------------------------------------------------------------
 * finished run on 2026/01/15 at 10:42:11.539     
------------------------------------------------------------------------
 total:
 * wall-time:     0 d,  0 h,  1 min, 28.880 sec
 *  cpu-time:     0 d,  0 h,  4 min, 11.689 sec
 * ratio c/w:     2.832 speedup
 SCF:
 * wall-time:     0 d,  0 h,  0 min,  3.428 sec
 *  cpu-time:     0 d,  0 h,  0 min,  8.322 sec
 * ratio c/w:     2.427 speedup
 ANC optimizer:
 * wall-time:     0 d,  0 h,  1 min, 25.254 sec
 *  cpu-time:     0 d,  0 h,  4 min,  2.885 sec
 * ratio c/w:     2.849 speedup

