18
 energy: -28.361702254285 gnorm: 0.000538787523 xtb: 6.7.1 (edcfbbe)
C           -2.94199435093075        0.33475462314675       -0.21321983922398
C           -1.47009455210100        0.13489363175576       -0.14198312974810
C           -0.78730961804364       -0.96604229463803       -0.59744265063544
C            0.59203325824639       -1.08036492447199       -0.53323071890750
N            1.41322185320595       -0.01285859424440       -0.35080816605890
C            2.68056810000515       -0.16646453485447        0.32849686301634
N            0.81269799022257        1.22592187883228       -0.33945704965634
S           -0.55187350112244        1.30124731077821        0.84573450834371
O           -0.04243542475199        0.56501522585664        2.01118174236972
H           -3.17125183300830        1.39348069507108       -0.33418728168320
H           -3.43372965990429       -0.00663567289462        0.70203077568620
H           -3.36674415027236       -0.21792482827010       -1.04961766388401
H           -1.34221645040051       -1.80583809363131       -0.99511795002674
H            1.08973956926989       -2.02511948924720       -0.67199171347021
H            3.08360507301611       -1.15231852005135        0.11064822290540
H            3.37885583827664        0.59257287350099       -0.03018307627329
H            2.55721805038506       -0.06255691840438        1.41119094461235
H            1.49971080790751        1.94823763176570       -0.15204381736576
