      -----------------------------------------------------------      
     |                   =====================                   |     
     |                           x T B                           |     
     |                   =====================                   |     
     |                         S. Grimme                         |     
     |          Mulliken Center for Theoretical Chemistry        |     
     |                    University of Bonn                     |     
      -----------------------------------------------------------      

   * xtb version 6.7.1 (edcfbbe) compiled by 'conda@c0858423619e' on 2025-09-04

   xtb is free software: you can redistribute it and/or modify it under
   the terms of the GNU Lesser General Public License as published by
   the Free Software Foundation, either version 3 of the License, or
   (at your option) any later version.
   
   xtb is distributed in the hope that it will be useful,
   but WITHOUT ANY WARRANTY; without even the implied warranty of
   MERCHANTABILITY or FITNESS FOR A PARTICULAR PURPOSE.  See the
   GNU Lesser General Public License for more details.
   
   Cite this work as:
   * C. Bannwarth, E. Caldeweyher, S. Ehlert, A. Hansen, P. Pracht,
     J. Seibert, S. Spicher, S. Grimme, WIREs Comput. Mol. Sci., 2020, 11,
     e01493. DOI: 10.1002/wcms.1493
   
   for GFN2-xTB:
   * C. Bannwarth, S. Ehlert and S. Grimme., J. Chem. Theory Comput., 2019,
     15, 1652-1671. DOI: 10.1021/acs.jctc.8b01176
   for GFN1-xTB:
   * S. Grimme, C. Bannwarth, P. Shushkov, J. Chem. Theory Comput., 2017,
     13, 1989-2009. DOI: 10.1021/acs.jctc.7b00118
   for GFN0-xTB:
   * P. Pracht, E. Caldeweyher, S. Ehlert, S. Grimme, ChemRxiv, 2019, preprint.
     DOI: 10.26434/chemrxiv.8326202.v1
   for GFN-FF:
   * S. Spicher and S. Grimme, Angew. Chem. Int. Ed., 2020, 59, 15665-15673.
     DOI: 10.1002/anie.202004239
   
   for ALPB and GBSA implicit solvation:
   * S. Ehlert, M. Stahn, S. Spicher, S. Grimme, J. Chem. Theory Comput.,
     2021, 17, 4250-4261. DOI: 10.1021/acs.jctc.1c00471
   
   for ddCOSMO and CPCM-X implicit solvation:
   * M. Stahn, S. Ehlert, S. Grimme, J. Phys. Chem. A,
     2023, XX, XXXX-XXXX. DOI: 10.1021/acs.jpca.3c04382
   
   for DFT-D4:
   * E. Caldeweyher, C. Bannwarth and S. Grimme, J. Chem. Phys., 2017,
     147, 034112. DOI: 10.1063/1.4993215
   * E. Caldeweyher, S. Ehlert, A. Hansen, H. Neugebauer, S. Spicher,
     C. Bannwarth and S. Grimme, J. Chem. Phys., 2019, 150, 154122.
     DOI: 10.1063/1.5090222
   * E. Caldeweyher, J.-M. Mewes, S. Ehlert and S. Grimme, Phys. Chem. Chem. Phys.
     2020, 22, 8499-8512. DOI: 10.1039/D0CP00502A
   
   for sTDA-xTB:
   * S. Grimme and C. Bannwarth, J. Chem. Phys., 2016, 145, 054103.
     DOI: 10.1063/1.4959605
   
   in the mass-spec context:
   * V. Asgeirsson, C. Bauer and S. Grimme, Chem. Sci., 2017, 8, 4879.
     DOI: 10.1039/c7sc00601b
   * J. Koopman and S. Grimme, ACS Omega 2019, 4, 12, 15120-15133.
     DOI: 10.1021/acsomega.9b02011
   
   for metadynamics refer to:
   * S. Grimme, J. Chem. Theory Comput., 2019, 155, 2847-2862
     DOI: 10.1021/acs.jctc.9b00143
   
   for SPH calculations refer to:
   * S. Spicher and S. Grimme, J. Chem. Theory Comput., 2021, 17, 1701-1714
     DOI: 10.1021/acs.jctc.0c01306
   
   for ONIOM refer to:
   * C. Plett, A. Katbashev, S. Ehlert, S. Grimme, M. Bursch,
     Phys. Chem. Chem. Phys., 2023, 25, 17860-17868. DOI: 10.1039/D3CP02178E
   
   for DIPRO refer to:
   * J. Kohn, N. Gildemeister, S. Grimme, D. Fazzi, A. Hansen,
     J. Chem. Phys., 2023, just accepted.
   
   for PTB refer to:
   * S. Grimme, M. Mueller, A. Hansen, J. Chem. Phys., 2023, 158, 124111.
     DOI: 10.1063/5.0137838
   
   with help from (in alphabetical order)
   P. Atkinson, C. Bannwarth, F. Bohle, G. Brandenburg, E. Caldeweyher
   M. Checinski, S. Dohm, S. Ehlert, S. Ehrlich, I. Gerasimov, C. Hölzer
   A. Katbashev, J. Kohn, J. Koopman, C. Lavigne, S. Lehtola, F. März, M. Müller,
   F. Musil, H. Neugebauer, J. Pisarek, C. Plett, P. Pracht, F. Pultar,
   J. Seibert, P. Shushkov, S. Spicher, M. Stahn, M. Steiner, T. Strunk,
   J. Stückrath, T. Rose, and J. Unsleber
   
 * started run on 2026/01/15 at 10:10:19.121     
   ID    Z sym.   atoms
    1    6 C      1-4, 6
    2    7 N      5, 7
    3   16 S      8
    4    8 O      9
    5    1 H      10-17

           -------------------------------------------------
          |                Calculation Setup                |
           -------------------------------------------------

          program call               : /h/28/cicsy/miniforge3/envs/elagente/bin/xtb N4-Me_TDSO_deprotonated.xyz --opt --gfn 2 -P 4 --chrg -1
          coordinate file            : N4-Me_TDSO_deprotonated.xyz
          omp threads                :                     4


           -------------------------------------------------
          |                 G F N 2 - x T B                 |
           -------------------------------------------------

        Reference                      10.1021/acs.jctc.8b01176
      * Hamiltonian:
        H0-scaling (s, p, d)           1.850000    2.230000    2.230000
        zeta-weighting                 0.500000
      * Dispersion:
        s8                             2.700000
        a1                             0.520000
        a2                             5.000000
        s9                             5.000000
      * Repulsion:
        kExp                           1.500000    1.000000
        rExp                           1.000000
      * Coulomb:
        alpha                          2.000000
        third order                    shell-resolved
        anisotropic                    true
        a3                             3.000000
        a5                             4.000000
        cn-shift                       1.200000
        cn-exp                         4.000000
        max-rad                        5.000000


          ...................................................
          :                      SETUP                      :
          :.................................................:
          :  # basis functions                  50          :
          :  # atomic orbitals                  49          :
          :  # shells                           27          :
          :  # electrons                        51          :
          :  max. iterations                   250          :
          :  Hamiltonian                  GFN2-xTB          :
          :  restarted?                      false          :
          :  GBSA solvation                  false          :
          :  PC potential                    false          :
          :  electronic temp.          300.0000000     K    :
          :  accuracy                    1.0000000          :
          :  -> integral cutoff          0.2500000E+02      :
          :  -> integral neglect         0.1000000E-07      :
          :  -> SCF convergence          0.1000000E-05 Eh   :
          :  -> wf. convergence          0.1000000E-03 e    :
          :  Broyden damping             0.4000000          :
          :  net charge                         -1          :
          :  unpaired electrons                  0          :
          ...................................................

 iter      E             dE          RMSdq      gap      omega  full diag
   1    -28.2138808 -0.282139E+02  0.436E+00    1.55       0.0  T
   2    -28.2975555 -0.836747E-01  0.257E+00    2.09       1.0  T
   3    -28.2987284 -0.117291E-02  0.146E+00    1.92       1.0  T
   4    -28.2933559  0.537249E-02  0.955E-01    1.97       1.0  T
   5    -28.3064425 -0.130866E-01  0.222E-01    1.88       1.0  T
   6    -28.3065500 -0.107535E-03  0.118E-01    1.88       1.0  T
   7    -28.3065872 -0.371855E-04  0.489E-02    1.89       1.0  T
   8    -28.3065990 -0.117395E-04  0.281E-02    1.89       1.0  T
   9    -28.3065992 -0.233458E-06  0.172E-02    1.89       1.4  T
  10    -28.3066009 -0.166102E-05  0.474E-03    1.89       5.1  T
  11    -28.3066009 -0.246240E-07  0.162E-03    1.89      15.0  T
  12    -28.3066009 -0.274099E-08  0.342E-04    1.89      70.8  T
  13    -28.3066009 -0.529582E-09  0.135E-04    1.89     179.3  T

   *** convergence criteria satisfied after 13 iterations ***

         #    Occupation            Energy/Eh            Energy/eV
      -------------------------------------------------------------
         1        2.0000           -0.5329793             -14.5031
       ...           ...                  ...                  ...
        20        2.0000           -0.2636950              -7.1755
        21        2.0000           -0.2306155              -6.2754
        22        2.0000           -0.2130121              -5.7964
        23        2.0000           -0.1803861              -4.9086
        24        2.0000           -0.1726617              -4.6984
        25        2.0000           -0.1475459              -4.0149
        26        1.0000           -0.0725012              -1.9729 (HOMO)
        27                         -0.0031528              -0.0858 (LUMO)
        28                          0.0040146               0.1092
        29                          0.0624747               1.7000
        30                          0.1288528               3.5063
        31                          0.1485031               4.0410
       ...                                ...                  ...
        49                          0.9730921              26.4792
      -------------------------------------------------------------
                  HL-Gap            0.0693484 Eh            1.8871 eV
             Fermi-level           -0.0739252 Eh           -2.0116 eV

 SCC (total)                   0 d,  0 h,  0 min,  1.723 sec
 SCC setup                      ...        0 min,  0.012 sec (  0.724%)
 Dispersion                     ...        0 min,  0.032 sec (  1.841%)
 classical contributions        ...        0 min,  0.029 sec (  1.674%)
 integral evaluation            ...        0 min,  0.059 sec (  3.414%)
 iterations                     ...        0 min,  1.469 sec ( 85.303%)
 molecular gradient             ...        0 min,  0.117 sec (  6.775%)
 printout                       ...        0 min,  0.005 sec (  0.267%)

         :::::::::::::::::::::::::::::::::::::::::::::::::::::
         ::                     SUMMARY                     ::
         :::::::::::::::::::::::::::::::::::::::::::::::::::::
         :: total energy             -28.027467586707 Eh    ::
         :: gradient norm              0.168097034967 Eh/a0 ::
         :: HOMO-LUMO gap              1.887066323449 eV    ::
         ::.................................................::
         :: SCC energy               -28.306579725117 Eh    ::
         :: -> isotropic ES            0.170518915356 Eh    ::
         :: -> anisotropic ES          0.004971109271 Eh    ::
         :: -> anisotropic XC          0.013165599629 Eh    ::
         :: -> dispersion             -0.016361837567 Eh    ::
         :: repulsion energy           0.279112138411 Eh    ::
         :: add. restraining           0.000000000000 Eh    ::
         :: total charge              -1.000000000000 e     ::
         :::::::::::::::::::::::::::::::::::::::::::::::::::::

      ----------------------------------------------------------- 
     |                   =====================                   |
     |                        A N C O P T                        |
     |                   =====================                   |
     |               Approximate Normal Coordinate               |
     |                Rational Function Optimizer                |
      ----------------------------------------------------------- 
      ----------------------------------------------------------- 
     |                   =====================                   |
     |                        A N C O P T                        |
     |                   =====================                   |
     |               Approximate Normal Coordinate               |
     |                Rational Function Optimizer                |
      ----------------------------------------------------------- 

          ...................................................
          :                      SETUP                      :
          :.................................................:
          :   optimization level            normal          :
          :   max. optcycles                   200          :
          :   ANC micro-cycles                  20          :
          :   degrees of freedom                45          :
          :.................................................:
          :   RF solver                   davidson          :
          :   write xtbopt.log                true          :
          :   linear?                        false          :
          :   energy convergence         0.5000000E-05 Eh   :
          :   grad. convergence          0.1000000E-02 Eh/α :
          :   maxmium RF displ.          1.0000000          :
          :   Hlow (freq-cutoff)         0.1000000E-01      :
          :   Hmax (freq-cutoff)         5.0000000          :
          :   S6 in model hess.         20.0000000          :
          ...................................................

generating ANC from exact Hessian ...
Using Lindh-Hessian (1995)
 Shifting diagonal of input Hessian by    7.3754895103934504E-003
 Lowest  eigenvalues of input Hessian
    0.000000    0.000000    0.000000    0.000000    0.000000    0.000000
    0.010000    0.014506    0.016272    0.018087    0.020437    0.024063
    0.027942    0.033687    0.037151    0.048018    0.066584    0.069420
 Highest eigenvalues
    1.297003    1.459771    1.701766    1.901298    2.051738    2.114793


........................................................................
.............................. CYCLE    1 ..............................
........................................................................

 iter      E             dE          RMSdq      gap      omega  full diag
   1    -28.3066009 -0.283066E+02  0.325E-05    1.89       0.0  T
   2    -28.3066009 -0.731859E-12  0.208E-05    1.89    1163.4  T
   3    -28.3066009  0.105516E-11  0.126E-05    1.89    1925.4  T
     SCC iter.                  ...        0 min,  0.339 sec
     gradient                   ...        0 min,  0.002 sec
 * total energy  :   -28.0274676 Eh     change       -0.2197709E-10 Eh
   gradient norm :     0.1680966 Eh/α   predicted     0.0000000E+00 (-100.00%)
   displ. norm   :     0.3031910 α      lambda       -0.2686197E-01
   maximum displ.:     0.1207897 α      in ANC's #26, #11, #4, ...

........................................................................
.............................. CYCLE    2 ..............................
........................................................................

 iter      E             dE          RMSdq      gap      omega  full diag
   1    -28.3310700 -0.283311E+02  0.460E-01    2.43       0.0  T
   2    -28.3310487  0.213576E-04  0.404E-01    2.45       1.0  T
   3    -28.3324563 -0.140761E-02  0.174E-01    2.43       1.0  T
   4    -28.3325046 -0.482728E-04  0.564E-02    2.44       1.0  T
   5    -28.3325167 -0.121249E-04  0.262E-02    2.44       1.0  T
   6    -28.3325203 -0.363151E-05  0.104E-02    2.44       2.3  T
   7    -28.3325212 -0.894778E-06  0.358E-03    2.44       6.8  T
   8    -28.3325213 -0.275058E-07  0.171E-03    2.44      14.2  T
   9    -28.3325213 -0.133999E-07  0.600E-04    2.44      40.4  T
  10    -28.3325213 -0.123859E-08  0.240E-04    2.44     101.0  T
     SCC iter.                  ...        0 min,  0.987 sec
     gradient                   ...        0 min,  0.098 sec
 * total energy  :   -28.0458936 Eh     change       -0.1842601E-01 Eh
   gradient norm :     0.0690157 Eh/α   predicted    -0.1466562E-01 ( -20.41%)
   displ. norm   :     0.2986951 α      lambda       -0.8476363E-02
   maximum displ.:     0.1629918 α      in ANC's #9, #4, #3, ...

........................................................................
.............................. CYCLE    3 ..............................
........................................................................

 iter      E             dE          RMSdq      gap      omega  full diag
   1    -28.3470219 -0.283470E+02  0.278E-01    2.69       0.0  T
   2    -28.3469057  0.116213E-03  0.276E-01    2.69       1.0  T
   3    -28.3476681 -0.762390E-03  0.108E-01    2.69       1.0  T
   4    -28.3476705 -0.239305E-05  0.302E-02    2.70       1.0  T
   5    -28.3476746 -0.416339E-05  0.110E-02    2.69       2.2  T
   6    -28.3476750 -0.371431E-06  0.398E-03    2.69       6.1  T
   7    -28.3476751 -0.123418E-06  0.168E-03    2.69      14.4  T
   8    -28.3476751 -0.465225E-08  0.876E-04    2.69      27.7  T
   9    -28.3476751 -0.350948E-08  0.320E-04    2.69      75.9  T
     SCC iter.                  ...        0 min,  0.784 sec
     gradient                   ...        0 min,  0.002 sec
 * total energy  :   -28.0506003 Eh     change       -0.4706743E-02 Eh
   gradient norm :     0.0245286 Eh/α   predicted    -0.4616308E-02 (  -1.92%)
   displ. norm   :     0.2040117 α      lambda       -0.1456178E-02
   maximum displ.:     0.1156162 α      in ANC's #4, #3, #5, ...

........................................................................
.............................. CYCLE    4 ..............................
........................................................................

 iter      E             dE          RMSdq      gap      omega  full diag
   1    -28.3461689 -0.283462E+02  0.120E-01    2.66       0.0  T
   2    -28.3461792 -0.102833E-04  0.779E-02    2.67       1.0  T
   3    -28.3461711  0.806838E-05  0.400E-02    2.66       1.0  T
   4    -28.3461897 -0.185836E-04  0.714E-03    2.67       3.4  T
   5    -28.3461898 -0.138918E-06  0.313E-03    2.67       7.7  T
   6    -28.3461899 -0.284198E-07  0.122E-03    2.67      19.9  T
   7    -28.3461899 -0.509156E-08  0.669E-04    2.67      36.3  T
   8    -28.3461899 -0.527397E-09  0.430E-04    2.67      56.4  T
     SCC iter.                  ...        0 min,  0.403 sec
     gradient                   ...        0 min,  0.002 sec
 * total energy  :   -28.0516461 Eh     change       -0.1045751E-02 Eh
   gradient norm :     0.0154209 Eh/α   predicted    -0.7583930E-03 ( -27.48%)
   displ. norm   :     0.2164732 α      lambda       -0.7951751E-03
   maximum displ.:     0.1149159 α      in ANC's #3, #5, #4, ...

........................................................................
.............................. CYCLE    5 ..............................
........................................................................

 iter      E             dE          RMSdq      gap      omega  full diag
   1    -28.3459721 -0.283460E+02  0.103E-01    2.66       0.0  T
   2    -28.3459696  0.254339E-05  0.637E-02    2.66       1.0  T
   3    -28.3459654  0.415283E-05  0.524E-02    2.66       1.0  T
   4    -28.3459963 -0.308392E-04  0.585E-03    2.66       4.1  T
   5    -28.3459963 -0.592719E-07  0.389E-03    2.66       6.2  T
   6    -28.3459964 -0.109312E-06  0.120E-03    2.66      20.3  T
   7    -28.3459964 -0.216922E-08  0.638E-04    2.66      38.0  T
   8    -28.3459964 -0.281290E-09  0.268E-04    2.66      90.5  T
     SCC iter.                  ...        0 min,  0.357 sec
     gradient                   ...        0 min,  0.002 sec
 * total energy  :   -28.0521346 Eh     change       -0.4885214E-03 Eh
   gradient norm :     0.0075308 Eh/α   predicted    -0.4162197E-03 ( -14.80%)
   displ. norm   :     0.1075629 α      lambda       -0.1726635E-03
   maximum displ.:     0.0622684 α      in ANC's #3, #5, #2, ...

........................................................................
.............................. CYCLE    6 ..............................
........................................................................

 iter      E             dE          RMSdq      gap      omega  full diag
   1    -28.3469292 -0.283469E+02  0.460E-02    2.68       0.0  T
   2    -28.3469291  0.796025E-07  0.335E-02    2.67       1.0  T
   3    -28.3469376 -0.847153E-05  0.203E-02    2.67       1.2  T
   4    -28.3469396 -0.203682E-05  0.535E-03    2.67       4.5  T
   5    -28.3469398 -0.158492E-06  0.297E-03    2.67       8.2  T
   6    -28.3469399 -0.677973E-07  0.139E-03    2.67      17.4  T
   7    -28.3469399 -0.524685E-08  0.529E-04    2.67      45.8  T
   8    -28.3469399 -0.340599E-10  0.244E-04    2.67      99.6  T
     SCC iter.                  ...        0 min,  0.345 sec
     gradient                   ...        0 min,  0.002 sec
 * total energy  :   -28.0522612 Eh     change       -0.1265677E-03 Eh
   gradient norm :     0.0044083 Eh/α   predicted    -0.8733216E-04 ( -31.00%)
   displ. norm   :     0.1369649 α      lambda       -0.1488522E-03
   maximum displ.:     0.0795702 α      in ANC's #3, #2, #6, ...

........................................................................
.............................. CYCLE    7 ..............................
........................................................................

 iter      E             dE          RMSdq      gap      omega  full diag
   1    -28.3478616 -0.283479E+02  0.651E-02    2.69       0.0  T
   2    -28.3478668 -0.518738E-05  0.402E-02    2.68       1.0  T
   3    -28.3478695 -0.274330E-05  0.271E-02    2.69       1.0  T
   4    -28.3478733 -0.377635E-05  0.105E-02    2.69       2.3  T
   5    -28.3478739 -0.599171E-06  0.529E-03    2.69       4.6  T
   6    -28.3478741 -0.267435E-06  0.237E-03    2.69      10.3  T
   7    -28.3478742 -0.248670E-07  0.736E-04    2.69      32.9  T
   8    -28.3478742 -0.152507E-09  0.317E-04    2.69      76.5  T
     SCC iter.                  ...        0 min,  0.537 sec
     gradient                   ...        0 min,  0.002 sec
 * total energy  :   -28.0523617 Eh     change       -0.1005550E-03 Eh
   gradient norm :     0.0045558 Eh/α   predicted    -0.7582284E-04 ( -24.60%)
   displ. norm   :     0.1146348 α      lambda       -0.8020810E-04
   maximum displ.:     0.0665960 α      in ANC's #3, #6, #2, ...

........................................................................
.............................. CYCLE    8 ..............................
........................................................................

 iter      E             dE          RMSdq      gap      omega  full diag
   1    -28.3479340 -0.283479E+02  0.602E-02    2.70       0.0  T
   2    -28.3479386 -0.461300E-05  0.333E-02    2.69       1.0  T
   3    -28.3479379  0.709422E-06  0.212E-02    2.70       1.1  T
   4    -28.3479407 -0.285902E-05  0.944E-03    2.70       2.6  T
   5    -28.3479412 -0.526279E-06  0.486E-03    2.70       5.0  T
   6    -28.3479414 -0.171478E-06  0.216E-03    2.70      11.2  T
   7    -28.3479414 -0.270552E-07  0.611E-04    2.70      39.7  T
   8    -28.3479414 -0.286917E-09  0.302E-04    2.70      80.4  T
     SCC iter.                  ...        0 min,  0.411 sec
     gradient                   ...        0 min,  0.002 sec
 * total energy  :   -28.0524198 Eh     change       -0.5809731E-04 Eh
   gradient norm :     0.0051371 Eh/α   predicted    -0.4063025E-04 ( -30.07%)
   displ. norm   :     0.1273342 α      lambda       -0.7878951E-04
   maximum displ.:     0.0735031 α      in ANC's #3, #6, #2, ...

........................................................................
.............................. CYCLE    9 ..............................
........................................................................

 iter      E             dE          RMSdq      gap      omega  full diag
   1    -28.3474813 -0.283475E+02  0.716E-02    2.70       0.0  T
   2    -28.3474854 -0.408925E-05  0.419E-02    2.70       1.0  T
   3    -28.3474841  0.133052E-05  0.307E-02    2.70       1.0  T
   4    -28.3474948 -0.107421E-04  0.102E-02    2.70       2.4  T
   5    -28.3474951 -0.242876E-06  0.511E-03    2.70       4.7  T
   6    -28.3474952 -0.109810E-06  0.230E-03    2.70      10.5  T
   7    -28.3474952 -0.274489E-07  0.672E-04    2.70      36.1  T
   8    -28.3474952 -0.404285E-09  0.399E-04    2.70      60.9  T
     SCC iter.                  ...        0 min,  0.789 sec
     gradient                   ...        0 min,  0.002 sec
 * total energy  :   -28.0524753 Eh     change       -0.5548355E-04 Eh
   gradient norm :     0.0055062 Eh/α   predicted    -0.4003243E-04 ( -27.85%)
   displ. norm   :     0.1116461 α      lambda       -0.7130674E-04
   maximum displ.:     0.0636325 α      in ANC's #3, #6, #2, ...

........................................................................
.............................. CYCLE   10 ..............................
........................................................................

 iter      E             dE          RMSdq      gap      omega  full diag
   1    -28.3469498 -0.283469E+02  0.643E-02    2.70       0.0  T
   2    -28.3469511 -0.128523E-05  0.396E-02    2.70       1.0  T
   3    -28.3469526 -0.148669E-05  0.290E-02    2.70       1.0  T
   4    -28.3469628 -0.101970E-04  0.727E-03    2.70       3.3  T
   5    -28.3469628 -0.566076E-08  0.383E-03    2.70       6.3  T
   6    -28.3469628 -0.513168E-07  0.152E-03    2.70      16.0  T
   7    -28.3469629 -0.102255E-07  0.593E-04    2.70      40.9  T
   8    -28.3469629 -0.364533E-09  0.364E-04    2.70      66.7  T
     SCC iter.                  ...        0 min,  0.385 sec
     gradient                   ...        0 min,  0.089 sec
 * total energy  :   -28.0525282 Eh     change       -0.5292536E-04 Eh
   gradient norm :     0.0058463 Eh/α   predicted    -0.3609865E-04 ( -31.79%)
   displ. norm   :     0.1253609 α      lambda       -0.8310899E-04
   maximum displ.:     0.0736936 α      in ANC's #3, #2, #6, ...

........................................................................
.............................. CYCLE   11 ..............................
........................................................................

 iter      E             dE          RMSdq      gap      omega  full diag
   1    -28.3464499 -0.283464E+02  0.684E-02    2.70       0.0  T
   2    -28.3464515 -0.167036E-05  0.391E-02    2.70       1.0  T
   3    -28.3464441  0.740447E-05  0.327E-02    2.70       1.0  T
   4    -28.3464591 -0.149790E-04  0.716E-03    2.70       3.4  T
   5    -28.3464591 -0.458453E-08  0.383E-03    2.70       6.3  T
   6    -28.3464592 -0.474959E-07  0.152E-03    2.70      16.0  T
   7    -28.3464592 -0.148705E-07  0.669E-04    2.70      36.3  T
   8    -28.3464592 -0.410434E-09  0.332E-04    2.70      73.1  T
     SCC iter.                  ...        0 min,  0.658 sec
     gradient                   ...        0 min,  0.179 sec
 * total energy  :   -28.0525877 Eh     change       -0.5945812E-04 Eh
   gradient norm :     0.0060671 Eh/α   predicted    -0.4220721E-04 ( -29.01%)
   displ. norm   :     0.1209300 α      lambda       -0.6717227E-04
   maximum displ.:     0.0778305 α      in ANC's #3, #2, #6, ...

........................................................................
.............................. CYCLE   12 ..............................
........................................................................

 iter      E             dE          RMSdq      gap      omega  full diag
   1    -28.3463449 -0.283463E+02  0.596E-02    2.70       0.0  T
   2    -28.3463470 -0.217800E-05  0.323E-02    2.70       1.0  T
   3    -28.3463450  0.207811E-05  0.177E-02    2.70       1.4  T
   4    -28.3463482 -0.328247E-05  0.561E-03    2.70       4.3  T
   5    -28.3463482  0.490016E-07  0.368E-03    2.70       6.6  T
   6    -28.3463483 -0.908459E-07  0.159E-03    2.70      15.2  T
   7    -28.3463483 -0.303311E-07  0.618E-04    2.70      39.3  T
   8    -28.3463483 -0.393950E-09  0.174E-04    2.70     139.5  T
     SCC iter.                  ...        0 min,  0.652 sec
     gradient                   ...        0 min,  0.054 sec
 * total energy  :   -28.0526360 Eh     change       -0.4833527E-04 Eh
   gradient norm :     0.0052231 Eh/α   predicted    -0.3407861E-04 ( -29.50%)
   displ. norm   :     0.1080761 α      lambda       -0.5295905E-04
   maximum displ.:     0.0756993 α      in ANC's #3, #2, #6, ...

........................................................................
.............................. CYCLE   13 ..............................
........................................................................

 iter      E             dE          RMSdq      gap      omega  full diag
   1    -28.3468938 -0.283469E+02  0.502E-02    2.71       0.0  T
   2    -28.3468956 -0.173938E-05  0.294E-02    2.71       1.0  T
   3    -28.3468939  0.171074E-05  0.196E-02    2.71       1.2  T
   4    -28.3468978 -0.394641E-05  0.583E-03    2.71       4.2  T
   5    -28.3468979 -0.107166E-06  0.325E-03    2.71       7.5  T
   6    -28.3468980 -0.619249E-07  0.122E-03    2.71      19.9  T
   7    -28.3468980 -0.127597E-07  0.533E-04    2.71      45.5  T
   8    -28.3468980 -0.207610E-09  0.217E-04    2.71     111.8  T
     SCC iter.                  ...        0 min,  0.601 sec
     gradient                   ...        0 min,  0.090 sec
 * total energy  :   -28.0526731 Eh     change       -0.3705413E-04 Eh
   gradient norm :     0.0031868 Eh/α   predicted    -0.2678959E-04 ( -27.70%)
   displ. norm   :     0.1135061 α      lambda       -0.3451145E-04
   maximum displ.:     0.0840207 α      in ANC's #3, #2, #6, ...

........................................................................
.............................. CYCLE   14 ..............................
........................................................................

 iter      E             dE          RMSdq      gap      omega  full diag
   1    -28.3471069 -0.283471E+02  0.489E-02    2.72       0.0  T
   2    -28.3471088 -0.192451E-05  0.294E-02    2.72       1.0  T
   3    -28.3471085  0.299079E-06  0.201E-02    2.72       1.2  T
   4    -28.3471118 -0.334948E-05  0.604E-03    2.72       4.0  T
   5    -28.3471119 -0.876081E-07  0.367E-03    2.72       6.6  T
   6    -28.3471121 -0.145062E-06  0.130E-03    2.72      18.7  T
   7    -28.3471121 -0.678249E-08  0.475E-04    2.72      51.1  T
   8    -28.3471121 -0.112017E-10  0.210E-04    2.72     115.3  T
     SCC iter.                  ...        0 min,  0.600 sec
     gradient                   ...        0 min,  0.003 sec
 * total energy  :   -28.0526966 Eh     change       -0.2346798E-04 Eh
   gradient norm :     0.0021618 Eh/α   predicted    -0.1747843E-04 ( -25.52%)
   displ. norm   :     0.0734384 α      lambda       -0.3906065E-04
   maximum displ.:     0.0510484 α      in ANC's #3, #2, #4, ...

........................................................................
.............................. CYCLE   15 ..............................
........................................................................

 iter      E             dE          RMSdq      gap      omega  full diag
   1    -28.3489086 -0.283489E+02  0.365E-02    2.73       0.0  T
   2    -28.3489102 -0.164443E-05  0.206E-02    2.72       1.2  T
   3    -28.3489103 -0.710107E-07  0.121E-02    2.73       2.0  T
   4    -28.3489111 -0.780587E-06  0.387E-03    2.72       6.3  T
   5    -28.3489112 -0.100853E-06  0.191E-03    2.72      12.7  T
   6    -28.3489112  0.134793E-07  0.133E-03    2.72      18.2  T
   7    -28.3489112 -0.268447E-07  0.363E-04    2.72      66.8  T
   8    -28.3489112 -0.877982E-10  0.174E-04    2.72     139.4  T
     SCC iter.                  ...        0 min,  0.753 sec
     gradient                   ...        0 min,  0.006 sec
 * total energy  :   -28.0527076 Eh     change       -0.1108478E-04 Eh
   gradient norm :     0.0044264 Eh/α   predicted    -0.1963784E-04 (  77.16%)
   displ. norm   :     0.1129951 α      lambda       -0.3559623E-04
   maximum displ.:     0.0870525 α      in ANC's #3, #2, #6, ...

........................................................................
.............................. CYCLE   16 ..............................
........................................................................

 iter      E             dE          RMSdq      gap      omega  full diag
   1    -28.3478117 -0.283478E+02  0.500E-02    2.73       0.0  T
   2    -28.3478144 -0.277977E-05  0.281E-02    2.73       1.0  T
   3    -28.3478141  0.379482E-06  0.169E-02    2.73       1.4  T
   4    -28.3478155 -0.141470E-05  0.668E-03    2.73       3.6  T
   5    -28.3478158 -0.305670E-06  0.266E-03    2.73       9.1  T
   6    -28.3478158 -0.140623E-07  0.170E-03    2.73      14.2  T
   7    -28.3478158 -0.333304E-07  0.403E-04    2.73      60.1  T
   8    -28.3478158 -0.125461E-09  0.192E-04    2.73     126.3  T
     SCC iter.                  ...        0 min,  0.710 sec
     gradient                   ...        0 min,  0.095 sec
 * total energy  :   -28.0527294 Eh     change       -0.2177093E-04 Eh
   gradient norm :     0.0033658 Eh/α   predicted    -0.1802670E-04 ( -17.20%)
   displ. norm   :     0.0451870 α      lambda       -0.2488945E-04
   maximum displ.:     0.0319073 α      in ANC's #3, #4, #2, ...

........................................................................
.............................. CYCLE   17 ..............................
........................................................................

 iter      E             dE          RMSdq      gap      omega  full diag
   1    -28.3473868 -0.283474E+02  0.161E-02    2.73       0.0  T
   2    -28.3473869 -0.819284E-07  0.997E-03    2.73       2.4  T
   3    -28.3473866  0.323064E-06  0.700E-03    2.73       3.5  T
   4    -28.3473872 -0.588499E-06  0.179E-03    2.73      13.6  T
   5    -28.3473872 -0.205892E-07  0.609E-04    2.73      39.8  T
   6    -28.3473872 -0.920004E-09  0.203E-04    2.73     119.5  T
     SCC iter.                  ...        0 min,  0.477 sec
     gradient                   ...        0 min,  0.056 sec
 * total energy  :   -28.0527505 Eh     change       -0.2107738E-04 Eh
   gradient norm :     0.0023794 Eh/α   predicted    -0.1247050E-04 ( -40.83%)
   displ. norm   :     0.2232797 α      lambda       -0.8804254E-04
   maximum displ.:     0.1521444 α      in ANC's #3, #4, #2, ...

........................................................................
.............................. CYCLE   18 ..............................
........................................................................

 iter      E             dE          RMSdq      gap      omega  full diag
   1    -28.3456375 -0.283456E+02  0.649E-02    2.74       0.0  T
   2    -28.3456379 -0.396468E-06  0.395E-02    2.74       1.0  T
   3    -28.3456269  0.110469E-04  0.281E-02    2.74       1.0  T
   4    -28.3456399 -0.129651E-04  0.411E-03    2.74       5.9  T
   5    -28.3456399  0.142160E-08  0.189E-03    2.74      12.8  T
   6    -28.3456399 -0.199618E-07  0.708E-04    2.74      34.3  T
   7    -28.3456399 -0.440237E-08  0.361E-04    2.74      67.1  T
     SCC iter.                  ...        0 min,  0.465 sec
     gradient                   ...        0 min,  0.085 sec
 * total energy  :   -28.0528048 Eh     change       -0.5435593E-04 Eh
   gradient norm :     0.0049297 Eh/α   predicted    -0.4621560E-04 ( -14.98%)
   displ. norm   :     0.1333593 α      lambda       -0.8032606E-04
   maximum displ.:     0.0921171 α      in ANC's #4, #6, #5, ...

........................................................................
.............................. CYCLE   19 ..............................
........................................................................

 iter      E             dE          RMSdq      gap      omega  full diag
   1    -28.3460527 -0.283461E+02  0.515E-02    2.73       0.0  T
   2    -28.3460552 -0.252730E-05  0.322E-02    2.73       1.0  T
   3    -28.3460554 -0.212974E-06  0.212E-02    2.73       1.1  T
   4    -28.3460585 -0.310981E-05  0.569E-03    2.73       4.3  T
   5    -28.3460587 -0.192871E-06  0.317E-03    2.73       7.7  T
   6    -28.3460589 -0.128927E-06  0.111E-03    2.73      21.9  T
   7    -28.3460589 -0.483029E-08  0.356E-04    2.73      68.1  T
   8    -28.3460589 -0.940759E-10  0.140E-04    2.73     173.8  T
     SCC iter.                  ...        0 min,  0.898 sec
     gradient                   ...        0 min,  0.111 sec
 * total energy  :   -28.0528478 Eh     change       -0.4293731E-04 Eh
   gradient norm :     0.0054569 Eh/α   predicted    -0.4087631E-04 (  -4.80%)
   displ. norm   :     0.2956845 α      lambda       -0.1119336E-03
   maximum displ.:     0.2121731 α      in ANC's #3, #4, #2, ...

........................................................................
.............................. CYCLE   20 ..............................
........................................................................

 iter      E             dE          RMSdq      gap      omega  full diag
   1    -28.3441149 -0.283441E+02  0.856E-02    2.74       0.0  T
   2    -28.3441169 -0.197262E-05  0.497E-02    2.74       1.0  T
   3    -28.3441061  0.107308E-04  0.280E-02    2.74       1.0  T
   4    -28.3441184 -0.122842E-04  0.700E-03    2.74       3.5  T
   5    -28.3441187 -0.300994E-06  0.288E-03    2.74       8.4  T
   6    -28.3441188 -0.363275E-07  0.115E-03    2.74      21.0  T
   7    -28.3441188 -0.103445E-07  0.446E-04    2.74      54.4  T
   8    -28.3441188 -0.314685E-09  0.287E-04    2.74      84.4  T
     SCC iter.                  ...        0 min,  0.598 sec
     gradient                   ...        0 min,  0.086 sec
 * total energy  :   -28.0529120 Eh     change       -0.6422747E-04 Eh
   gradient norm :     0.0082428 Eh/α   predicted    -0.6086156E-04 (  -5.24%)
   displ. norm   :     0.1389007 α      lambda       -0.1968232E-03
   maximum displ.:     0.1024381 α      in ANC's #3, #4, #5, ...
 * RMSD in coord.:     0.5070388 α      energy gain  -0.2544442E-01 Eh

generating ANC from exact Hessian ...
Using Lindh-Hessian (1995)
 Shifting diagonal of input Hessian by    6.6681994659200886E-003
 Lowest  eigenvalues of input Hessian
    0.000000    0.000000    0.000000    0.000000    0.000000    0.000000
    0.010000    0.014212    0.016314    0.017815    0.020640    0.024938
    0.026869    0.034297    0.037996    0.059008    0.070265    0.074695
 Highest eigenvalues
    1.430210    1.486468    1.741452    1.960714    2.035233    2.302989


........................................................................
.............................. CYCLE   21 ..............................
........................................................................

 iter      E             dE          RMSdq      gap      omega  full diag
   1    -28.3463783 -0.283464E+02  0.539E-02    2.75       0.0  T
   2    -28.3463782  0.112617E-06  0.412E-02    2.74       1.0  T
   3    -28.3463856 -0.745537E-05  0.227E-02    2.75       1.1  T
   4    -28.3463894 -0.377505E-05  0.491E-03    2.75       4.9  T
   5    -28.3463895 -0.952776E-07  0.253E-03    2.74       9.6  T
   6    -28.3463895 -0.398792E-07  0.964E-04    2.75      25.2  T
   7    -28.3463896 -0.737099E-08  0.329E-04    2.75      73.8  T
     SCC iter.                  ...        0 min,  0.697 sec
     gradient                   ...        0 min,  0.134 sec
 * total energy  :   -28.0530424 Eh     change       -0.1304199E-03 Eh
   gradient norm :     0.0048506 Eh/α   predicted     0.0000000E+00 (-100.00%)
   displ. norm   :     0.0341588 α      lambda       -0.6488634E-04
   maximum displ.:     0.0222931 α      in ANC's #3, #4, #1, ...

........................................................................
.............................. CYCLE   22 ..............................
........................................................................

 iter      E             dE          RMSdq      gap      omega  full diag
   1    -28.3475654 -0.283476E+02  0.207E-02    2.74       0.0  T
   2    -28.3475658 -0.358023E-06  0.133E-02    2.74       1.8  T
   3    -28.3475654  0.369935E-06  0.926E-03    2.74       2.6  T
   4    -28.3475663 -0.928853E-06  0.234E-03    2.74      10.4  T
   5    -28.3475664 -0.481614E-07  0.884E-04    2.74      27.4  T
   6    -28.3475664 -0.221258E-08  0.417E-04    2.74      58.2  T
     SCC iter.                  ...        0 min,  0.311 sec
     gradient                   ...        0 min,  0.069 sec
 * total energy  :   -28.0530875 Eh     change       -0.4509418E-04 Eh
   gradient norm :     0.0018900 Eh/α   predicted    -0.3247966E-04 ( -27.97%)
   displ. norm   :     0.0810910 α      lambda       -0.3427249E-04
   maximum displ.:     0.0564324 α      in ANC's #3, #4, #1, ...

........................................................................
.............................. CYCLE   23 ..............................
........................................................................

 iter      E             dE          RMSdq      gap      omega  full diag
   1    -28.3485953 -0.283486E+02  0.302E-02    2.74       0.0  T
   2    -28.3485960 -0.700514E-06  0.182E-02    2.74       1.3  T
   3    -28.3485956  0.411414E-06  0.818E-03    2.74       3.0  T
   4    -28.3485960 -0.389238E-06  0.355E-03    2.74       6.8  T
   5    -28.3485962 -0.205730E-06  0.113E-03    2.74      21.5  T
   6    -28.3485962 -0.610249E-08  0.467E-04    2.74      51.9  T
   7    -28.3485962 -0.938119E-09  0.188E-04    2.74     128.9  T
     SCC iter.                  ...        0 min,  0.551 sec
     gradient                   ...        0 min,  0.085 sec
 * total energy  :   -28.0531207 Eh     change       -0.3314217E-04 Eh
   gradient norm :     0.0019547 Eh/α   predicted    -0.1718779E-04 ( -48.14%)
   displ. norm   :     0.1368004 α      lambda       -0.3786120E-04
   maximum displ.:     0.0923495 α      in ANC's #3, #4, #1, ...

........................................................................
.............................. CYCLE   24 ..............................
........................................................................

 iter      E             dE          RMSdq      gap      omega  full diag
   1    -28.3485343 -0.283485E+02  0.430E-02    2.74       0.0  T
   2    -28.3485348 -0.499739E-06  0.263E-02    2.74       1.0  T
   3    -28.3485320  0.283267E-05  0.157E-02    2.74       1.5  T
   4    -28.3485352 -0.325760E-05  0.449E-03    2.74       5.4  T
   5    -28.3485355 -0.252092E-06  0.126E-03    2.74      19.2  T
   6    -28.3485355 -0.225633E-10  0.478E-04    2.74      50.8  T
   7    -28.3485355 -0.146776E-08  0.236E-04    2.74     102.7  T
     SCC iter.                  ...        0 min,  0.461 sec
     gradient                   ...        0 min,  0.068 sec
 * total energy  :   -28.0531744 Eh     change       -0.5371625E-04 Eh
   gradient norm :     0.0027726 Eh/α   predicted    -0.1908714E-04 ( -64.47%)
   displ. norm   :     0.6647936 α      lambda       -0.2686208E-03
   maximum displ.:     0.4414826 α      in ANC's #3, #4, #5, ...

........................................................................
.............................. CYCLE   25 ..............................
........................................................................

 iter      E             dE          RMSdq      gap      omega  full diag
   1    -28.3410313 -0.283410E+02  0.217E-01    2.75       0.0  T
   2    -28.3410502 -0.189022E-04  0.132E-01    2.75       1.0  T
   3    -28.3409678  0.824089E-04  0.881E-02    2.75       1.0  T
   4    -28.3410716 -0.103804E-03  0.211E-02    2.75       1.2  T
   5    -28.3410761 -0.444288E-05  0.683E-03    2.75       3.6  T
   6    -28.3410760  0.470887E-07  0.343E-03    2.75       7.1  T
   7    -28.3410762 -0.123558E-06  0.112E-03    2.75      21.6  T
   8    -28.3410762 -0.228501E-08  0.536E-04    2.75      45.3  T
   9    -28.3410762 -0.515680E-09  0.179E-04    2.75     135.5  T
     SCC iter.                  ...        0 min,  0.878 sec
     gradient                   ...        0 min,  0.079 sec
 * total energy  :   -28.0528595 Eh     change        0.3148752E-03 Eh
   gradient norm :     0.0189017 Eh/α   predicted    -0.1936553E-03 (-161.50%)
   displ. norm   :     0.4065567 α      lambda       -0.1229318E-02
   maximum displ.:     0.2694401 α      in ANC's #3, #4, #5, ...

........................................................................
.............................. CYCLE   26 ..............................
........................................................................

 iter      E             dE          RMSdq      gap      omega  full diag
   1    -28.3481354 -0.283481E+02  0.147E-01    2.75       0.0  T
   2    -28.3481484 -0.130664E-04  0.869E-02    2.75       1.0  T
   3    -28.3481258  0.225813E-04  0.484E-02    2.75       1.0  T
   4    -28.3481509 -0.250859E-04  0.170E-02    2.75       1.4  T
   5    -28.3481547 -0.376229E-05  0.455E-03    2.75       5.3  T
   6    -28.3481547  0.101875E-07  0.235E-03    2.75      10.3  T
   7    -28.3481547 -0.522266E-07  0.737E-04    2.75      32.9  T
   8    -28.3481547 -0.188872E-08  0.395E-04    2.75      61.4  T
     SCC iter.                  ...        0 min,  0.607 sec
     gradient                   ...        0 min,  0.093 sec
 * total energy  :   -28.0532736 Eh     change       -0.4141270E-03 Eh
   gradient norm :     0.0035033 Eh/α   predicted    -0.7162485E-03 (  72.95%)
   displ. norm   :     0.0584856 α      lambda       -0.2780309E-04
   maximum displ.:     0.0347378 α      in ANC's #3, #4, #5, ...

........................................................................
.............................. CYCLE   27 ..............................
........................................................................

 iter      E             dE          RMSdq      gap      omega  full diag
   1    -28.3479024 -0.283479E+02  0.187E-02    2.75       0.0  T
   2    -28.3479024 -0.619639E-07  0.111E-02    2.75       2.2  T
   3    -28.3479016  0.851419E-06  0.843E-03    2.75       2.9  T
   4    -28.3479027 -0.111357E-05  0.145E-03    2.75      16.7  T
   5    -28.3479027 -0.350898E-08  0.647E-04    2.75      37.5  T
   6    -28.3479027 -0.218341E-08  0.205E-04    2.75     118.3  T
     SCC iter.                  ...        0 min,  0.420 sec
     gradient                   ...        0 min,  0.067 sec
 * total energy  :   -28.0533001 Eh     change       -0.2644954E-04 Eh
   gradient norm :     0.0032094 Eh/α   predicted    -0.1395110E-04 ( -47.25%)
   displ. norm   :     0.5051613 α      lambda       -0.2213002E-03
   maximum displ.:     0.3018187 α      in ANC's #3, #4, #5, ...

........................................................................
.............................. CYCLE   28 ..............................
........................................................................

 iter      E             dE          RMSdq      gap      omega  full diag
   1    -28.3426884 -0.283427E+02  0.164E-01    2.78       0.0  T
   2    -28.3426972 -0.879266E-05  0.982E-02    2.77       1.0  T
   3    -28.3426391  0.580338E-04  0.753E-02    2.78       1.0  T
   4    -28.3427216 -0.825101E-04  0.136E-02    2.78       1.8  T
   5    -28.3427222 -0.511635E-06  0.606E-03    2.77       4.0  T
   6    -28.3427223 -0.125273E-06  0.259E-03    2.78       9.4  T
   7    -28.3427223 -0.512038E-07  0.980E-04    2.78      24.7  T
   8    -28.3427223 -0.277825E-08  0.598E-04    2.78      40.5  T
     SCC iter.                  ...        0 min,  0.316 sec
     gradient                   ...        0 min,  0.002 sec
 * total energy  :   -28.0532355 Eh     change        0.6459505E-04 Eh
   gradient norm :     0.0127656 Eh/α   predicted    -0.1388985E-03 (-315.03%)
   displ. norm   :     0.2930173 α      lambda       -0.4544730E-03
   maximum displ.:     0.1803847 α      in ANC's #3, #4, #5, ...

........................................................................
.............................. CYCLE   29 ..............................
........................................................................

 iter      E             dE          RMSdq      gap      omega  full diag
   1    -28.3474326 -0.283474E+02  0.101E-01    2.76       0.0  T
   2    -28.3474372 -0.461845E-05  0.606E-02    2.76       1.0  T
   3    -28.3474167  0.204508E-04  0.451E-02    2.76       1.0  T
   4    -28.3474455 -0.287395E-04  0.862E-03    2.76       2.8  T
   5    -28.3474458 -0.340036E-06  0.342E-03    2.76       7.1  T
   6    -28.3474458 -0.165186E-07  0.176E-03    2.76      13.8  T
   7    -28.3474459 -0.316775E-07  0.515E-04    2.76      47.1  T
   8    -28.3474459 -0.436621E-09  0.304E-04    2.76      79.7  T
     SCC iter.                  ...        0 min,  0.383 sec
     gradient                   ...        0 min,  0.002 sec
 * total energy  :   -28.0533902 Eh     change       -0.1546915E-03 Eh
   gradient norm :     0.0022998 Eh/α   predicted    -0.2467494E-03 (  59.51%)
   displ. norm   :     0.0722280 α      lambda       -0.2873997E-04
   maximum displ.:     0.0410080 α      in ANC's #4, #3, #1, ...

........................................................................
.............................. CYCLE   30 ..............................
........................................................................

 iter      E             dE          RMSdq      gap      omega  full diag
   1    -28.3473017 -0.283473E+02  0.221E-02    2.77       0.0  T
   2    -28.3473018 -0.149351E-06  0.131E-02    2.77       1.9  T
   3    -28.3473008  0.104720E-05  0.957E-03    2.77       2.5  T
   4    -28.3473022 -0.136361E-05  0.197E-03    2.77      12.3  T
   5    -28.3473022 -0.145300E-07  0.968E-04    2.77      25.1  T
   6    -28.3473022 -0.314921E-08  0.318E-04    2.77      76.3  T
     SCC iter.                  ...        0 min,  0.235 sec
     gradient                   ...        0 min,  0.002 sec
 * total energy  :   -28.0534167 Eh     change       -0.2650313E-04 Eh
   gradient norm :     0.0023745 Eh/α   predicted    -0.1444584E-04 ( -45.49%)
   displ. norm   :     0.3725544 α      lambda       -0.1353859E-03
   maximum displ.:     0.2120561 α      in ANC's #4, #3, #1, ...

........................................................................
.............................. CYCLE   31 ..............................
........................................................................

 iter      E             dE          RMSdq      gap      omega  full diag
   1    -28.3450195 -0.283450E+02  0.112E-01    2.80       0.0  T
   2    -28.3450239 -0.448737E-05  0.666E-02    2.79       1.0  T
   3    -28.3449973  0.266635E-04  0.500E-02    2.79       1.0  T
   4    -28.3450331 -0.358297E-04  0.991E-03    2.79       2.4  T
   5    -28.3450335 -0.385115E-06  0.497E-03    2.79       4.9  T
   6    -28.3450336 -0.111140E-06  0.188E-03    2.79      12.9  T
   7    -28.3450336 -0.297474E-07  0.789E-04    2.79      30.8  T
   8    -28.3450336 -0.279014E-08  0.442E-04    2.79      54.9  T
     SCC iter.                  ...        0 min,  0.281 sec
     gradient                   ...        0 min,  0.002 sec
 * total energy  :   -28.0534672 Eh     change       -0.5054723E-04 Eh
   gradient norm :     0.0073434 Eh/α   predicted    -0.7708947E-04 (  52.51%)
   displ. norm   :     0.0862647 α      lambda       -0.7341240E-04
   maximum displ.:     0.0520021 α      in ANC's #3, #4, #5, ...

........................................................................
.............................. CYCLE   32 ..............................
........................................................................

 iter      E             dE          RMSdq      gap      omega  full diag
   1    -28.3471379 -0.283471E+02  0.328E-02    2.78       0.0  T
   2    -28.3471386 -0.741103E-06  0.196E-02    2.79       1.2  T
   3    -28.3471367  0.196117E-05  0.148E-02    2.78       1.6  T
   4    -28.3471396 -0.297585E-05  0.300E-03    2.78       8.1  T
   5    -28.3471397 -0.403953E-07  0.122E-03    2.79      19.8  T
   6    -28.3471397 -0.478315E-08  0.613E-04    2.78      39.6  T
   7    -28.3471397 -0.310801E-08  0.185E-04    2.78     131.2  T
     SCC iter.                  ...        0 min,  0.312 sec
     gradient                   ...        0 min,  0.002 sec
 * total energy  :   -28.0535068 Eh     change       -0.3956316E-04 Eh
   gradient norm :     0.0033552 Eh/α   predicted    -0.3697984E-04 (  -6.53%)
   displ. norm   :     0.0941864 α      lambda       -0.3795943E-04
   maximum displ.:     0.0526187 α      in ANC's #4, #3, #2, ...

........................................................................
.............................. CYCLE   33 ..............................
........................................................................

 iter      E             dE          RMSdq      gap      omega  full diag
   1    -28.3476846 -0.283477E+02  0.273E-02    2.79       0.0  T
   2    -28.3476848 -0.192715E-06  0.157E-02    2.79       1.5  T
   3    -28.3476839  0.962357E-06  0.888E-03    2.79       2.7  T
   4    -28.3476850 -0.113664E-05  0.222E-03    2.79      10.9  T
   5    -28.3476850 -0.140221E-07  0.121E-03    2.79      20.1  T
   6    -28.3476850 -0.139371E-07  0.381E-04    2.79      63.6  T
   7    -28.3476850 -0.107782E-08  0.186E-04    2.79     130.1  T
     SCC iter.                  ...        0 min,  0.274 sec
     gradient                   ...        0 min,  0.002 sec
 * total energy  :   -28.0535393 Eh     change       -0.3247283E-04 Eh
   gradient norm :     0.0027560 Eh/α   predicted    -0.1915000E-04 ( -41.03%)
   displ. norm   :     0.3312867 α      lambda       -0.9814787E-04
   maximum displ.:     0.1893750 α      in ANC's #4, #3, #2, ...

........................................................................
.............................. CYCLE   34 ..............................
........................................................................

 iter      E             dE          RMSdq      gap      omega  full diag
   1    -28.3466590 -0.283467E+02  0.934E-02    2.80       0.0  T
   2    -28.3466615 -0.249536E-05  0.546E-02    2.80       1.0  T
   3    -28.3466471  0.144273E-04  0.352E-02    2.80       1.0  T
   4    -28.3466645 -0.173449E-04  0.801E-03    2.80       3.0  T
   5    -28.3466648 -0.346915E-06  0.396E-03    2.80       6.1  T
   6    -28.3466649 -0.106188E-06  0.176E-03    2.80      13.8  T
   7    -28.3466649 -0.258720E-07  0.579E-04    2.80      41.9  T
   8    -28.3466649 -0.469722E-09  0.370E-04    2.80      65.5  T
     SCC iter.                  ...        0 min,  0.499 sec
     gradient                   ...        0 min,  0.002 sec
 * total energy  :   -28.0536030 Eh     change       -0.6370753E-04 Eh
   gradient norm :     0.0040912 Eh/α   predicted    -0.5445779E-04 ( -14.52%)
   displ. norm   :     0.1183359 α      lambda       -0.4906912E-04
   maximum displ.:     0.0698819 α      in ANC's #4, #3, #2, ...

........................................................................
.............................. CYCLE   35 ..............................
........................................................................

 iter      E             dE          RMSdq      gap      omega  full diag
   1    -28.3473911 -0.283474E+02  0.346E-02    2.80       0.0  T
   2    -28.3473917 -0.645127E-06  0.202E-02    2.80       1.2  T
   3    -28.3473913  0.416289E-06  0.867E-03    2.80       2.8  T
   4    -28.3473917 -0.427560E-06  0.391E-03    2.80       6.2  T
   5    -28.3473919 -0.162236E-06  0.136E-03    2.80      17.8  T
   6    -28.3473919 -0.102368E-08  0.802E-04    2.80      30.2  T
   7    -28.3473919 -0.866324E-08  0.229E-04    2.80     106.1  T
     SCC iter.                  ...        0 min,  0.309 sec
     gradient                   ...        0 min,  0.002 sec
 * total energy  :   -28.0536394 Eh     change       -0.3641741E-04 Eh
   gradient norm :     0.0024028 Eh/α   predicted    -0.2487848E-04 ( -31.69%)
   displ. norm   :     0.1605586 α      lambda       -0.4191539E-04
   maximum displ.:     0.0883339 α      in ANC's #4, #3, #2, ...

........................................................................
.............................. CYCLE   36 ..............................
........................................................................

 iter      E             dE          RMSdq      gap      omega  full diag
   1    -28.3476974 -0.283477E+02  0.467E-02    2.80       0.0  T
   2    -28.3476982 -0.829612E-06  0.277E-02    2.80       1.0  T
   3    -28.3476966  0.154960E-05  0.131E-02    2.80       1.9  T
   4    -28.3476982 -0.153171E-05  0.567E-03    2.80       4.3  T
   5    -28.3476986 -0.397902E-06  0.169E-03    2.80      14.3  T
   6    -28.3476986  0.708425E-09  0.913E-04    2.80      26.6  T
   7    -28.3476986 -0.104105E-07  0.270E-04    2.80      89.8  T
     SCC iter.                  ...        0 min,  0.342 sec
     gradient                   ...        0 min,  0.002 sec
 * total energy  :   -28.0536669 Eh     change       -0.2751252E-04 Eh
   gradient norm :     0.0021380 Eh/α   predicted    -0.2149821E-04 ( -21.86%)
   displ. norm   :     0.1159451 α      lambda       -0.2729268E-04
   maximum displ.:     0.0666068 α      in ANC's #4, #3, #2, ...

........................................................................
.............................. CYCLE   37 ..............................
........................................................................

 iter      E             dE          RMSdq      gap      omega  full diag
   1    -28.3483078 -0.283483E+02  0.362E-02    2.80       0.0  T
   2    -28.3483081 -0.346818E-06  0.214E-02    2.80       1.1  T
   3    -28.3483064  0.169207E-05  0.119E-02    2.80       2.0  T
   4    -28.3483083 -0.189215E-05  0.357E-03    2.80       6.8  T
   5    -28.3483085 -0.134258E-06  0.113E-03    2.80      21.4  T
   6    -28.3483085 -0.183080E-08  0.599E-04    2.80      40.5  T
   7    -28.3483085 -0.364292E-08  0.202E-04    2.80     120.2  T
     SCC iter.                  ...        0 min,  0.280 sec
     gradient                   ...        0 min,  0.002 sec
 * total energy  :   -28.0536849 Eh     change       -0.1795435E-04 Eh
   gradient norm :     0.0019950 Eh/α   predicted    -0.1382799E-04 ( -22.98%)
   displ. norm   :     0.3818990 α      lambda       -0.2754511E-04
   maximum displ.:     0.2135387 α      in ANC's #4, #3, #2, ...

........................................................................
.............................. CYCLE   38 ..............................
........................................................................

 iter      E             dE          RMSdq      gap      omega  full diag
   1    -28.3442412 -0.283442E+02  0.116E-01    2.81       0.0  T
   2    -28.3442456 -0.444956E-05  0.685E-02    2.81       1.0  T
   3    -28.3442233  0.222803E-04  0.427E-02    2.81       1.0  T
   4    -28.3442492 -0.259086E-04  0.988E-03    2.81       2.5  T
   5    -28.3442501 -0.844376E-06  0.366E-03    2.81       6.6  T
   6    -28.3442501 -0.595701E-08  0.209E-03    2.81      11.6  T
   7    -28.3442501 -0.537968E-07  0.539E-04    2.81      45.0  T
   8    -28.3442501  0.355271E-11  0.266E-04    2.81      91.2  T
     SCC iter.                  ...        0 min,  0.401 sec
     gradient                   ...        0 min,  0.002 sec
 * total energy  :   -28.0536050 Eh     change        0.7983352E-04 Eh
   gradient norm :     0.0084421 Eh/α   predicted    -0.1466679E-04 (-118.37%)
   displ. norm   :     0.1218396 α      lambda       -0.1939033E-03
   maximum displ.:     0.0725357 α      in ANC's #4, #3, #1, ...

........................................................................
.............................. CYCLE   39 ..............................
........................................................................

 iter      E             dE          RMSdq      gap      omega  full diag
   1    -28.3479160 -0.283479E+02  0.472E-02    2.80       0.0  T
   2    -28.3479186 -0.259462E-05  0.274E-02    2.80       1.0  T
   3    -28.3479166  0.203079E-05  0.170E-02    2.80       1.4  T
   4    -28.3479191 -0.257676E-05  0.600E-03    2.80       4.0  T
   5    -28.3479195 -0.401879E-06  0.197E-03    2.80      12.3  T
   6    -28.3479196 -0.925541E-08  0.116E-03    2.80      20.8  T
   7    -28.3479196 -0.143461E-07  0.262E-04    2.80      92.5  T
   8    -28.3479196 -0.583711E-10  0.144E-04    2.80     169.0  T
     SCC iter.                  ...        0 min,  0.395 sec
     gradient                   ...        0 min,  0.002 sec
 * total energy  :   -28.0537074 Eh     change       -0.1023589E-03 Eh
   gradient norm :     0.0029747 Eh/α   predicted    -0.9838982E-04 (  -3.88%)
   displ. norm   :     0.0305411 α      lambda       -0.1889437E-04
   maximum displ.:     0.0213176 α      in ANC's #2, #3, #4, ...

........................................................................
.............................. CYCLE   40 ..............................
........................................................................

 iter      E             dE          RMSdq      gap      omega  full diag
   1    -28.3484866 -0.283485E+02  0.156E-02    2.80       0.0  T
   2    -28.3484869 -0.325439E-06  0.905E-03    2.80       2.7  T
   3    -28.3484869  0.281399E-07  0.417E-03    2.80       5.8  T
   4    -28.3484869 -0.512496E-07  0.166E-03    2.80      14.6  T
   5    -28.3484869 -0.236491E-07  0.673E-04    2.80      36.0  T
   6    -28.3484869  0.547722E-10  0.283E-04    2.80      85.8  T
     SCC iter.                  ...        0 min,  0.214 sec
     gradient                   ...        0 min,  0.002 sec
 * total energy  :   -28.0537153 Eh     change       -0.7946777E-05 Eh
   gradient norm :     0.0012094 Eh/α   predicted    -0.9453963E-05 (  18.97%)
   displ. norm   :     0.0580821 α      lambda       -0.7316142E-05
   maximum displ.:     0.0392261 α      in ANC's #2, #4, #3, ...

........................................................................
.............................. CYCLE   41 ..............................
........................................................................

 iter      E             dE          RMSdq      gap      omega  full diag
   1    -28.3488514 -0.283489E+02  0.215E-02    2.80       0.0  T
   2    -28.3488516 -0.132466E-06  0.124E-02    2.81       1.9  T
   3    -28.3488511  0.439004E-06  0.602E-03    2.80       4.0  T
   4    -28.3488516 -0.511325E-06  0.142E-03    2.81      17.1  T
   5    -28.3488516 -0.129321E-07  0.692E-04    2.81      35.1  T
   6    -28.3488517 -0.282122E-08  0.350E-04    2.81      69.4  T
     SCC iter.                  ...        0 min,  0.261 sec
     gradient                   ...        0 min,  0.002 sec
 * total energy  :   -28.0537216 Eh     change       -0.6278177E-05 Eh
   gradient norm :     0.0013825 Eh/α   predicted    -0.3664851E-05 ( -41.63%)
   displ. norm   :     0.0591906 α      lambda       -0.4653310E-05
   maximum displ.:     0.0339699 α      in ANC's #2, #4, #3, ...

........................................................................
.............................. CYCLE   42 ..............................
........................................................................

 iter      E             dE          RMSdq      gap      omega  full diag
   1    -28.3485106 -0.283485E+02  0.194E-02    2.81       0.0  T
   2    -28.3485107 -0.552571E-07  0.112E-02    2.81       2.2  T
   3    -28.3485099  0.801753E-06  0.788E-03    2.81       3.1  T
   4    -28.3485109 -0.965959E-06  0.135E-03    2.81      17.9  T
   5    -28.3485109 -0.734882E-08  0.767E-04    2.81      31.6  T
   6    -28.3485109 -0.421013E-08  0.205E-04    2.81     118.5  T
     SCC iter.                  ...        0 min,  0.399 sec
     gradient                   ...        0 min,  0.087 sec
 * total energy  :   -28.0537265 Eh     change       -0.4888359E-05 Eh
   gradient norm :     0.0012625 Eh/α   predicted    -0.2330178E-05 ( -52.33%)
   displ. norm   :     0.0711887 α      lambda       -0.3956149E-05
   maximum displ.:     0.0404604 α      in ANC's #2, #4, #3, ...
 * RMSD in coord.:     0.5518969 α      energy gain  -0.8144871E-03 Eh

generating ANC from exact Hessian ...
Using Lindh-Hessian (1995)
 Shifting diagonal of input Hessian by    6.6579426224402547E-003
 Lowest  eigenvalues of input Hessian
    0.000000    0.000000    0.000000    0.000000    0.000000    0.000000
    0.010000    0.014214    0.016277    0.017626    0.020646    0.025115
    0.026709    0.034827    0.038632    0.061320    0.070461    0.074266
 Highest eigenvalues
    1.428682    1.484535    1.739692    1.952745    2.027835    2.296454


........................................................................
.............................. CYCLE   43 ..............................
........................................................................

 iter      E             dE          RMSdq      gap      omega  full diag
   1    -28.3483381 -0.283483E+02  0.232E-02    2.81       0.0  T
   2    -28.3483381 -0.346621E-07  0.136E-02    2.81       1.8  T
   3    -28.3483368  0.129342E-05  0.102E-02    2.81       2.4  T
   4    -28.3483384 -0.161323E-05  0.164E-03    2.81      14.8  T
   5    -28.3483384 -0.664811E-08  0.943E-04    2.81      25.7  T
   6    -28.3483384 -0.685286E-08  0.246E-04    2.81      98.6  T
     SCC iter.                  ...        0 min,  0.368 sec
     gradient                   ...        0 min,  0.003 sec
 * total energy  :   -28.0537305 Eh     change       -0.4035242E-05 Eh
   gradient norm :     0.0012208 Eh/α   predicted     0.0000000E+00 (-100.00%)
   displ. norm   :     0.0255150 α      lambda       -0.6738625E-05
   maximum displ.:     0.0225240 α      in ANC's #2, #4, #5, ...

........................................................................
.............................. CYCLE   44 ..............................
........................................................................

 iter      E             dE          RMSdq      gap      omega  full diag
   1    -28.3485540 -0.283486E+02  0.944E-03    2.81       0.0  T
   2    -28.3485541 -0.561587E-07  0.546E-03    2.81       4.4  T
   3    -28.3485541  0.105674E-07  0.169E-03    2.81      14.4  T
   4    -28.3485541 -0.142657E-07  0.619E-04    2.81      39.2  T
   5    -28.3485541 -0.408410E-08  0.293E-04    2.81      82.8  T
     SCC iter.                  ...        0 min,  0.325 sec
     gradient                   ...        0 min,  0.050 sec
 * total energy  :   -28.0537385 Eh     change       -0.7951846E-05 Eh
   gradient norm :     0.0004835 Eh/α   predicted    -0.3369340E-05 ( -57.63%)
   displ. norm   :     0.0626120 α      lambda       -0.1052476E-04
   maximum displ.:     0.0554305 α      in ANC's #2, #4, #5, ...

........................................................................
.............................. CYCLE   45 ..............................
........................................................................

 iter      E             dE          RMSdq      gap      omega  full diag
   1    -28.3486598 -0.283487E+02  0.186E-02    2.81       0.0  T
   2    -28.3486599 -0.109713E-06  0.111E-02    2.81       2.2  T
   3    -28.3486598  0.101273E-06  0.351E-03    2.81       6.9  T
   4    -28.3486599 -0.108465E-06  0.141E-03    2.81      17.2  T
   5    -28.3486599 -0.196615E-07  0.507E-04    2.81      47.9  T
   6    -28.3486599  0.137668E-10  0.276E-04    2.81      87.9  T
     SCC iter.                  ...        0 min,  0.568 sec
     gradient                   ...        0 min,  0.071 sec
 * total energy  :   -28.0537519 Eh     change       -0.1339422E-04 Eh
   gradient norm :     0.0009752 Eh/α   predicted    -0.5271275E-05 ( -60.65%)
   displ. norm   :     0.0638397 α      lambda       -0.9224144E-05
   maximum displ.:     0.0563931 α      in ANC's #2, #4, #5, ...

........................................................................
.............................. CYCLE   46 ..............................
........................................................................

 iter      E             dE          RMSdq      gap      omega  full diag
   1    -28.3486079 -0.283486E+02  0.174E-02    2.81       0.0  T
   2    -28.3486080 -0.554592E-07  0.104E-02    2.81       2.3  T
   3    -28.3486079  0.883646E-07  0.274E-03    2.81       8.8  T
   4    -28.3486080 -0.856891E-07  0.118E-03    2.81      20.6  T
   5    -28.3486080 -0.191159E-07  0.395E-04    2.81      61.4  T
   6    -28.3486080 -0.418787E-09  0.126E-04    2.81     192.9  T
     SCC iter.                  ...        0 min,  0.468 sec
     gradient                   ...        0 min,  0.076 sec
 * total energy  :   -28.0537647 Eh     change       -0.1278623E-04 Eh
   gradient norm :     0.0011224 Eh/α   predicted    -0.4619258E-05 ( -63.87%)
   displ. norm   :     0.0641316 α      lambda       -0.9185796E-05
   maximum displ.:     0.0564590 α      in ANC's #2, #4, #3, ...

........................................................................
.............................. CYCLE   47 ..............................
........................................................................

 iter      E             dE          RMSdq      gap      omega  full diag
   1    -28.3485309 -0.283485E+02  0.168E-02    2.81       0.0  T
   2    -28.3485310 -0.336424E-07  0.101E-02    2.81       2.4  T
   3    -28.3485306  0.310928E-06  0.439E-03    2.81       5.5  T
   4    -28.3485310 -0.341699E-06  0.707E-04    2.81      34.3  T
   5    -28.3485310 -0.477905E-08  0.341E-04    2.81      71.0  T
     SCC iter.                  ...        0 min,  0.341 sec
     gradient                   ...        0 min,  0.066 sec
 * total energy  :   -28.0537774 Eh     change       -0.1275617E-04 Eh
   gradient norm :     0.0008715 Eh/α   predicted    -0.4601324E-05 ( -63.93%)
   displ. norm   :     0.0684266 α      lambda       -0.9127993E-05
   maximum displ.:     0.0599094 α      in ANC's #2, #4, #3, ...

........................................................................
.............................. CYCLE   48 ..............................
........................................................................

 iter      E             dE          RMSdq      gap      omega  full diag
   1    -28.3484471 -0.283484E+02  0.176E-02    2.81       0.0  T
   2    -28.3484471 -0.555251E-07  0.105E-02    2.81       2.3  T
   3    -28.3484468  0.300364E-06  0.491E-03    2.81       4.9  T
   4    -28.3484472 -0.345837E-06  0.734E-04    2.81      33.0  T
   5    -28.3484472 -0.522119E-08  0.346E-04    2.81      70.1  T
     SCC iter.                  ...        0 min,  0.311 sec
     gradient                   ...        0 min,  0.073 sec
 * total energy  :   -28.0537899 Eh     change       -0.1245871E-04 Eh
   gradient norm :     0.0006344 Eh/α   predicted    -0.4574606E-05 ( -63.28%)
   displ. norm   :     0.0725367 α      lambda       -0.8514446E-05
   maximum displ.:     0.0634974 α      in ANC's #2, #4, #3, ...

........................................................................
.............................. CYCLE   49 ..............................
........................................................................

 iter      E             dE          RMSdq      gap      omega  full diag
   1    -28.3484056 -0.283484E+02  0.186E-02    2.81       0.0  T
   2    -28.3484056 -0.854704E-07  0.112E-02    2.81       2.2  T
   3    -28.3484053  0.359790E-06  0.579E-03    2.81       4.2  T
   4    -28.3484057 -0.432367E-06  0.856E-04    2.81      28.3  T
   5    -28.3484057 -0.707162E-08  0.364E-04    2.81      66.7  T
     SCC iter.                  ...        0 min,  0.402 sec
     gradient                   ...        0 min,  0.097 sec
 * total energy  :   -28.0538013 Eh     change       -0.1144644E-04 Eh
   gradient norm :     0.0006452 Eh/α   predicted    -0.4269010E-05 ( -62.70%)
   displ. norm   :     0.0736582 α      lambda       -0.7539621E-05
   maximum displ.:     0.0651738 α      in ANC's #2, #4, #3, ...

........................................................................
.............................. CYCLE   50 ..............................
........................................................................

 iter      E             dE          RMSdq      gap      omega  full diag
   1    -28.3484018 -0.283484E+02  0.190E-02    2.81       0.0  T
   2    -28.3484019 -0.870107E-07  0.115E-02    2.81       2.1  T
   3    -28.3484015  0.371465E-06  0.601E-03    2.81       4.0  T
   4    -28.3484020 -0.456902E-06  0.690E-04    2.81      35.2  T
   5    -28.3484020 -0.331079E-08  0.305E-04    2.81      79.6  T
     SCC iter.                  ...        0 min,  0.379 sec
     gradient                   ...        0 min,  0.099 sec
 * total energy  :   -28.0538114 Eh     change       -0.1008956E-04 Eh
   gradient norm :     0.0007691 Eh/α   predicted    -0.3777997E-05 ( -62.56%)
   displ. norm   :     0.0742122 α      lambda       -0.6797409E-05
   maximum displ.:     0.0669974 α      in ANC's #2, #4, #7, ...

........................................................................
.............................. CYCLE   51 ..............................
........................................................................

 iter      E             dE          RMSdq      gap      omega  full diag
   1    -28.3484337 -0.283484E+02  0.193E-02    2.81       0.0  T
   2    -28.3484338 -0.711580E-07  0.116E-02    2.81       2.1  T
   3    -28.3484334  0.405849E-06  0.598E-03    2.81       4.1  T
   4    -28.3484339 -0.489522E-06  0.568E-04    2.81      42.7  T
   5    -28.3484339 -0.123872E-08  0.339E-04    2.81      71.6  T
     SCC iter.                  ...        0 min,  0.314 sec
     gradient                   ...        0 min,  0.002 sec
 * total energy  :   -28.0538205 Eh     change       -0.9099152E-05 Eh
   gradient norm :     0.0008295 Eh/α   predicted    -0.3407632E-05 ( -62.55%)
   displ. norm   :     0.0774072 α      lambda       -0.6511860E-05
   maximum displ.:     0.0716626 α      in ANC's #2, #4, #7, ...

........................................................................
.............................. CYCLE   52 ..............................
........................................................................

 iter      E             dE          RMSdq      gap      omega  full diag
   1    -28.3484699 -0.283485E+02  0.202E-02    2.81       0.0  T
   2    -28.3484700 -0.633499E-07  0.121E-02    2.81       2.0  T
   3    -28.3484695  0.444298E-06  0.609E-03    2.81       4.0  T
   4    -28.3484700 -0.528303E-06  0.542E-04    2.81      44.7  T
   5    -28.3484700  0.985391E-09  0.384E-04    2.81      63.2  T
     SCC iter.                  ...        0 min,  0.350 sec
     gradient                   ...        0 min,  0.090 sec
 * total energy  :   -28.0538292 Eh     change       -0.8688713E-05 Eh
   gradient norm :     0.0008254 Eh/α   predicted    -0.3264030E-05 ( -62.43%)
   displ. norm   :     0.0893936 α      lambda       -0.6952403E-05
   maximum displ.:     0.0846576 α      in ANC's #2, #4, #7, ...

........................................................................
.............................. CYCLE   53 ..............................
........................................................................

 iter      E             dE          RMSdq      gap      omega  full diag
   1    -28.3484831 -0.283485E+02  0.233E-02    2.81       0.0  T
   2    -28.3484832 -0.717857E-07  0.140E-02    2.81       1.7  T
   3    -28.3484826  0.545451E-06  0.654E-03    2.81       3.7  T
   4    -28.3484833 -0.635527E-06  0.778E-04    2.81      31.2  T
   5    -28.3484833  0.209865E-08  0.556E-04    2.81      43.6  T
     SCC iter.                  ...        0 min,  0.343 sec
     gradient                   ...        0 min,  0.093 sec
 * total energy  :   -28.0538383 Eh     change       -0.9107514E-05 Eh
   gradient norm :     0.0008720 Eh/α   predicted    -0.3488111E-05 ( -61.70%)
   displ. norm   :     0.1587274 α      lambda       -0.1080480E-04
   maximum displ.:     0.1522537 α      in ANC's #2, #4, #7, ...

........................................................................
.............................. CYCLE   54 ..............................
........................................................................

 iter      E             dE          RMSdq      gap      omega  full diag
   1    -28.3481935 -0.283482E+02  0.414E-02    2.81       0.0  T
   2    -28.3481937 -0.243410E-06  0.249E-02    2.81       1.0  T
   3    -28.3481921  0.157834E-05  0.112E-02    2.81       2.2  T
   4    -28.3481940 -0.183678E-05  0.150E-03    2.81      16.2  T
   5    -28.3481940  0.185521E-08  0.919E-04    2.81      26.4  T
   6    -28.3481940 -0.103896E-07  0.331E-04    2.81      73.3  T
     SCC iter.                  ...        0 min,  0.351 sec
     gradient                   ...        0 min,  0.002 sec
 * total energy  :   -28.0538494 Eh     change       -0.1110895E-04 Eh
   gradient norm :     0.0016617 Eh/α   predicted    -0.5462773E-05 ( -50.83%)
   displ. norm   :     0.1057770 α      lambda       -0.7721111E-05
   maximum displ.:     0.1022792 α      in ANC's #2, #7, #23, ...

........................................................................
.............................. CYCLE   55 ..............................
........................................................................

 iter      E             dE          RMSdq      gap      omega  full diag
   1    -28.3484505 -0.283485E+02  0.279E-02    2.81       0.0  T
   2    -28.3484506 -0.117574E-06  0.166E-02    2.81       1.5  T
   3    -28.3484501  0.512076E-06  0.664E-03    2.81       3.7  T
   4    -28.3484507 -0.601350E-06  0.109E-03    2.81      22.2  T
   5    -28.3484507 -0.162124E-08  0.451E-04    2.81      53.8  T
   6    -28.3484507 -0.123912E-08  0.262E-04    2.81      92.5  T
     SCC iter.                  ...        0 min,  0.294 sec
     gradient                   ...        0 min,  0.086 sec
 * total energy  :   -28.0538576 Eh     change       -0.8218556E-05 Eh
   gradient norm :     0.0016761 Eh/α   predicted    -0.3878403E-05 ( -52.81%)
   displ. norm   :     0.0905216 α      lambda       -0.8898734E-05
   maximum displ.:     0.0870074 α      in ANC's #2, #23, #25, ...

........................................................................
.............................. CYCLE   56 ..............................
........................................................................

 iter      E             dE          RMSdq      gap      omega  full diag
   1    -28.3488112 -0.283488E+02  0.242E-02    2.81       0.0  T
   2    -28.3488114 -0.116681E-06  0.144E-02    2.81       1.7  T
   3    -28.3488110  0.333873E-06  0.567E-03    2.81       4.3  T
   4    -28.3488114 -0.397330E-06  0.105E-03    2.81      23.1  T
   5    -28.3488114 -0.228058E-08  0.474E-04    2.81      51.2  T
   6    -28.3488114 -0.145511E-08  0.257E-04    2.81      94.3  T
     SCC iter.                  ...        0 min,  0.619 sec
     gradient                   ...        0 min,  0.086 sec
 * total energy  :   -28.0538670 Eh     change       -0.9349596E-05 Eh
   gradient norm :     0.0006852 Eh/α   predicted    -0.4467135E-05 ( -52.22%)
   displ. norm   :     0.2247220 α      lambda       -0.9733811E-05
   maximum displ.:     0.2183300 α      in ANC's #2, #23, #7, ...

........................................................................
.............................. CYCLE   57 ..............................
[...]
   3    -28.3489258  0.300108E-06  0.555E-03    2.82       4.4  T
   4    -28.3489262 -0.345621E-06  0.184E-03    2.82      13.2  T
   5    -28.3489262 -0.314259E-07  0.699E-04    2.82      34.7  T
   6    -28.3489262 -0.122723E-08  0.404E-04    2.82      60.1  T
     SCC iter.                  ...        0 min,  0.539 sec
     gradient                   ...        0 min,  0.075 sec
 * total energy  :   -28.0539314 Eh     change       -0.1671664E-05 Eh
   gradient norm :     0.0002904 Eh/α   predicted    -0.1439317E-05 ( -13.90%)
   displ. norm   :     0.0199979 α      lambda       -0.4352807E-06
   maximum displ.:     0.0117617 α      in ANC's #3, #4, #5, ...

   *** GEOMETRY OPTIMIZATION CONVERGED AFTER 66 ITERATIONS ***

------------------------------------------------------------------------
 total energy gain   :        -0.0264638 Eh      -16.6063 kcal/mol
 total RMSD          :         1.0681439 a0        0.5652 Å
 total power (kW/mol):        -1.0527396 (step)   -1.9213 (real)
------------------------------------------------------------------------

 ANCopt (total)                0 d,  0 h,  0 min, 36.163 sec
 optimizer setup                ...        0 min,  0.000 sec (  0.001%)
 model hessian                  ...        0 min,  0.006 sec (  0.017%)
 ANC generation                 ...        0 min,  0.002 sec (  0.004%)
 coordinate transformation      ...        0 min,  0.001 sec (  0.002%)
 single point calculation       ...        0 min, 35.888 sec ( 99.241%)
 optimization log               ...        0 min,  0.035 sec (  0.097%)
 hessian update                 ...        0 min,  0.184 sec (  0.509%)
 rational function              ...        0 min,  0.023 sec (  0.062%)

================
 final structure:
================
17
 xtb: 6.7.1 (edcfbbe)
C           -2.96348936410948        0.30719354467305       -0.25242865028896
C           -1.48935468460267        0.11651445971982       -0.13364867245094
C           -0.76763935321408       -0.89316458275121       -0.72836520420128
C            0.60871073021862       -0.98155320866175       -0.64005915601255
N            1.37690173308284        0.05264538645607       -0.17735062173888
C            2.74072826550791       -0.19660309612406        0.21389456797420
N            0.85806418631991        1.24482683333699        0.23375492732344
S           -0.59419372596563        1.16583765469392        1.02364206967637
O           -0.45974433985962        0.32720836083775        2.26600591527793
H           -3.20588854545858        1.31181943863093       -0.61786406332018
H           -3.45832506472037        0.18927898094466        0.71777713557919
H           -3.39268172587258       -0.42081863495570       -0.94546045231870
H           -1.29016951980794       -1.67134874352967       -1.28559935306658
H            1.15694489420189       -1.84081908155405       -1.00412145968863
H            2.80296917186636       -0.65486610513402        1.21161161010585
H            3.22412851628698       -0.86095097774461       -0.50862173462319
H            3.26388582612657        0.75997977116185        0.24253714177297

 Bond Distances (Angstroems)
 ---------------------------
C1-C2=1.4912         C1-H10=1.0962        C1-H11=1.0955        C1-H12=1.0929        C2-C1=1.4912         C2-C3=1.3762         
C2-S8=1.8005         C3-C2=1.3762         C3-C4=1.3820         C3-H13=1.0905        C4-C3=1.3820         C4-N5=1.3689         
C4-H14=1.0823        N5-C4=1.3689         N5-C6=1.4406         N5-N7=1.3636         C6-N5=1.4406         C6-H15=1.0997        
C6-H16=1.0941        C6-H17=1.0907        N7-N5=1.3636         N7-S8=1.6551         S8-C2=1.8005         S8-N7=1.6551         
S8-O9=1.5049         O9-S8=1.5049         H10-C1=1.0962        H11-C1=1.0955        H12-C1=1.0929        H13-C3=1.0905        
H14-C4=1.0823        H15-C6=1.0997        H16-C6=1.0941        H17-C6=1.0907        
 C  H  Rav=1.0927 sigma=0.0048  Rmin=1.0823  Rmax=1.0997     8
 C  C  Rav=1.4165 sigma=0.0529  Rmin=1.3762  Rmax=1.4912     3
 N  C  Rav=1.4047 sigma=0.0359  Rmin=1.3689  Rmax=1.4406     2
 N  N  Rav=1.3636 sigma=0.0000  Rmin=1.3636  Rmax=1.3636     1
 S  C  Rav=1.8005 sigma=0.0000  Rmin=1.8005  Rmax=1.8005     1
 S  N  Rav=1.6551 sigma=0.0000  Rmin=1.6551  Rmax=1.6551     1
 S  O  Rav=1.5049 sigma=0.0000  Rmin=1.5049  Rmax=1.5049     1

 selected bond angles (degree)
 --------------------
H10-C1-C2=111.25               H11-C1-C2=111.24               H11-C1-H10=107.10              H12-C1-C2=110.70               
H12-C1-H10=108.19              H12-C1-H11=108.21              C3-C2-C1=125.30                S8-C2-C1=117.92                
S8-C2-C3=116.40                C4-C3-C2=122.79                H13-C3-C2=119.54               H13-C3-C4=117.66               
N5-C4-C3=122.15                H14-C4-C3=122.26               H14-C4-N5=115.42               C6-N5-C4=119.50                
N7-N5-C4=123.29                N7-N5-C6=115.44                H15-C6-N5=111.84               H16-C6-N5=110.12               
H16-C6-H15=108.73              H17-C6-N5=108.03               H17-C6-H15=108.33              H17-C6-H16=109.75              
S8-N7-N5=115.85                N7-S8-C2= 99.05                O9-S8-C2=104.49                O9-S8-N7=110.01                

 selected dihedral angles (degree)
 ---------------------------------
C3-C2-C1-H10=235.13           C3-C2-C1-H11=115.82           C3-C2-C1-H12=355.47           S8-C2-C1-H10= 62.56           
S8-C2-C1-H11=303.25           S8-C2-C1-H12=182.89           C4-C3-C2-C1=176.56            C4-C3-C2-S8=349.23            
H13-C3-C2-C1=355.74           H13-C3-C2-S8=168.41           N5-C4-C3-C2=347.29            N5-C4-C3-H13=168.09           
H14-C4-C3-C2=172.24           H14-C4-C3-H13=353.04          C6-N5-C4-C3=164.25            C6-N5-C4-H14=339.62           
N7-N5-C4-C3=  0.10            N7-N5-C4-H14=175.47           H15-C6-N5-C4=281.39           H15-C6-N5-N7= 86.75           
H16-C6-N5-C4= 42.41           H16-C6-N5-N7=207.77           H17-C6-N5-C4=162.26           H17-C6-N5-N7=327.62           
S8-N7-N5-C4= 36.27            S8-N7-N5-C6=231.53            N7-S8-C2-C1=210.78            N7-S8-C2-C3= 37.55            
O9-S8-C2-C1= 97.26            O9-S8-C2-C3=284.03            C2-S8-N7-N5=310.97            O9-S8-N7-N5= 60.10            
           -------------------------------------------------
          |                Final Singlepoint                |
           -------------------------------------------------

          ...................................................
          :                      SETUP                      :
          :.................................................:
          :  # basis functions                  50          :
          :  # atomic orbitals                  49          :
          :  # shells                           27          :
          :  # electrons                        51          :
          :  max. iterations                   250          :
          :  Hamiltonian                  GFN2-xTB          :
          :  restarted?                      false          :
          :  GBSA solvation                  false          :
          :  PC potential                    false          :
          :  electronic temp.          300.0000000     K    :
          :  accuracy                    1.0000000          :
          :  -> integral cutoff          0.2500000E+02      :
          :  -> integral neglect         0.1000000E-07      :
          :  -> SCF convergence          0.1000000E-05 Eh   :
          :  -> wf. convergence          0.1000000E-03 e    :
          :  Broyden damping             0.4000000          :
          :  net charge                         -1          :
          :  unpaired electrons                  0          :
          ...................................................

 iter      E             dE          RMSdq      gap      omega  full diag
   1    -28.3489262 -0.283489E+02  0.112E-04    2.82       0.0  T
   2    -28.3489262 -0.498090E-11  0.770E-05    2.82     315.1  T
   3    -28.3489262  0.243503E-10  0.619E-05    2.82     391.7  T

   *** convergence criteria satisfied after 3 iterations ***

         #    Occupation            Energy/Eh            Energy/eV
      -------------------------------------------------------------
         1        2.0000           -0.5310752             -14.4513
       ...           ...                  ...                  ...
        20        2.0000           -0.2589976              -7.0477
        21        2.0000           -0.2343012              -6.3757
        22        2.0000           -0.2169943              -5.9047
        23        2.0000           -0.1799524              -4.8968
        24        2.0000           -0.1702639              -4.6331
        25        2.0000           -0.1533589              -4.1731
        26        1.0000           -0.0888187              -2.4169 (HOMO)
        27                          0.0148215               0.4033 (LUMO)
        28                          0.0228003               0.6204
        29                          0.0735773               2.0021
        30                          0.1349939               3.6734
        31                          0.1885793               5.1315
       ...                                ...                  ...
        49                          1.0294857              28.0137
      -------------------------------------------------------------
                  HL-Gap            0.1036403 Eh            2.8202 eV
             Fermi-level           -0.0790437 Eh           -2.1509 eV

 SCC (total)                   0 d,  0 h,  0 min,  0.381 sec
 SCC setup                      ...        0 min,  0.008 sec (  2.022%)
 Dispersion                     ...        0 min,  0.023 sec (  6.030%)
 classical contributions        ...        0 min,  0.018 sec (  4.706%)
 integral evaluation            ...        0 min,  0.030 sec (  7.787%)
 iterations                     ...        0 min,  0.230 sec ( 60.451%)
 molecular gradient             ...        0 min,  0.072 sec ( 18.937%)
 printout                       ...        0 min,  0.000 sec (  0.059%)

         :::::::::::::::::::::::::::::::::::::::::::::::::::::
         ::                     SUMMARY                     ::
         :::::::::::::::::::::::::::::::::::::::::::::::::::::
         :: total energy             -28.053931433451 Eh    ::
         :: gradient norm              0.000287363921 Eh/a0 ::
         :: HOMO-LUMO gap              2.820195097426 eV    ::
         ::.................................................::
         :: SCC energy               -28.348905111984 Eh    ::
         :: -> isotropic ES            0.167884236742 Eh    ::
         :: -> anisotropic ES          0.001992793896 Eh    ::
         :: -> anisotropic XC          0.012764999375 Eh    ::
         :: -> dispersion             -0.016864367501 Eh    ::
         :: repulsion energy           0.294973678532 Eh    ::
         :: add. restraining           0.000000000000 Eh    ::
         :: total charge              -1.000000000000 e     ::
         :::::::::::::::::::::::::::::::::::::::::::::::::::::

           -------------------------------------------------
          |                Property Printout                |
           -------------------------------------------------

    * Orbital Energies and Occupations

         #    Occupation            Energy/Eh            Energy/eV
      -------------------------------------------------------------
         1        2.0000           -0.5310752             -14.4513
       ...           ...                  ...                  ...
        14        2.0000           -0.3355117              -9.1297
        15        2.0000           -0.3199519              -8.7063
        16        2.0000           -0.3115672              -8.4782
        17        2.0000           -0.2957230              -8.0470
        18        2.0000           -0.2835699              -7.7163
        19        2.0000           -0.2814839              -7.6596
        20        2.0000           -0.2589976              -7.0477
        21        2.0000           -0.2343012              -6.3757
        22        2.0000           -0.2169943              -5.9047
        23        2.0000           -0.1799524              -4.8968
        24        2.0000           -0.1702639              -4.6331
        25        2.0000           -0.1533589              -4.1731
        26        1.0000           -0.0888187              -2.4169 (HOMO)
        27                          0.0148215               0.4033 (LUMO)
        28                          0.0228003               0.6204
        29                          0.0735773               2.0021
        30                          0.1349939               3.6734
        31                          0.1885793               5.1315
        32                          0.2469349               6.7194
        33                          0.2503200               6.8116
        34                          0.2789689               7.5911
        35                          0.2898533               7.8873
        36                          0.3002359               8.1698
        37                          0.3124386               8.5019
       ...                                ...                  ...
        49                          1.0294857              28.0137
      -------------------------------------------------------------
                  HL-Gap            0.1036403 Eh            2.8202 eV
             Fermi-level           -0.0790437 Eh           -2.1509 eV

     #   Z          covCN         q      C6AA      α(0)
     1   6 C        3.769    -0.078    22.017     6.687
     2   6 C        2.941    -0.084    30.101     8.998
     3   6 C        2.949    -0.056    29.396     8.893
     4   6 C        2.848    -0.047    29.163     8.851
     5   7 N        2.912     0.022    20.861     6.784
     6   6 C        3.701    -0.021    21.113     6.571
     7   7 N        1.908    -0.409    31.594     8.334
     8  16 S        2.931     0.259   130.939    19.259
     9   8 O        0.859    -0.584    25.720     6.800
    10   1 H        0.924     0.000     3.053     2.733
    11   1 H        0.924     0.009     2.914     2.669
    12   1 H        0.924    -0.001     3.075     2.742
    13   1 H        0.924    -0.041     3.875     3.078
    14   1 H        0.925    -0.041     3.867     3.075
    15   1 H        0.923     0.023     2.689     2.564
    16   1 H        0.924     0.010     2.892     2.660
    17   1 H        0.924     0.038     2.474     2.460

 Mol. C6AA /au·bohr⁶  :       4379.872662
 Mol. C8AA /au·bohr⁸  :     113126.842738
 Mol. α(0) /au        :        103.156914


Wiberg/Mayer (AO) data.
largest (>0.10) Wiberg bond orders for each atom

 ---------------------------------------------------------------------------
     #   Z sym  total        # sym  WBO       # sym  WBO       # sym  WBO
 ---------------------------------------------------------------------------
     1   6 C    3.994 --     2 C    1.026    12 H    0.984    10 H    0.977
                            11 H    0.976
     2   6 C    3.839 --     3 C    1.473     1 C    1.026     8 S    0.967
                             4 C    0.105     7 N    0.103
     3   6 C    3.975 --     2 C    1.473     4 C    1.404    13 H    0.958
     4   6 C    3.894 --     3 C    1.404     5 N    1.208    14 H    0.964
                             7 N    0.116     2 C    0.105
     5   7 N    3.524 --     4 C    1.208     7 N    1.118     6 C    1.008
     6   6 C    3.992 --     5 N    1.008    17 H    0.983    16 H    0.981
                            15 H    0.972
     7   7 N    2.753 --     8 S    1.248     5 N    1.118     4 C    0.116
                             2 C    0.103
     8  16 S    4.017 --     9 O    1.669     7 N    1.248     2 C    0.967
     9   8 O    1.896 --     8 S    1.669
    10   1 H    1.000 --     1 C    0.977
    11   1 H    0.999 --     1 C    0.976
    12   1 H    1.000 --     1 C    0.984
    13   1 H    0.998 --     3 C    0.958
    14   1 H    0.998 --     4 C    0.964
    15   1 H    0.999 --     6 C    0.972
    16   1 H    1.000 --     6 C    0.981
    17   1 H    0.998 --     6 C    0.983
 ---------------------------------------------------------------------------

Topologies differ in total number of bonds
Writing topology from bond orders to xtbtopo.mol

molecular dipole:
                 x           y           z       tot (Debye)
 q only:        0.576      -0.338      -1.753
   full:        0.549      -1.096      -1.885       5.715
molecular quadrupole (traceless):
                xx          xy          yy          xz          yz          zz
 q only:        3.771      -2.277       4.048       1.664      -2.518      -7.819
  q+dip:        6.413      -3.021       2.164       2.469      -2.510      -8.578
   full:        6.501      -2.902       1.848       2.580      -2.691      -8.349

           -------------------------------------------------
          |                Geometry Summary                 |
           -------------------------------------------------

      molecular mass/u    :      144.1948042
   center of mass at/Å    :       -0.1281789       0.2620670       0.3409048
  moments of inertia/u·Å² :        0.2058624E+03   0.3957903E+03   0.5154459E+03
rotational constants/cm⁻¹ :        0.8188788E-01   0.4259233E-01   0.3270495E-01

 * 13 selected distances

     #   Z          #   Z                                           value/Å
     2   6 C        3   6 C                                       1.3762314
     3   6 C        4   6 C                                       1.3820096
     4   6 C        5   7 N                                       1.3688622
     5   7 N        6   6 C                                       1.4405627
     7   7 N        8  16 S                                       1.6550573 (max)
     1   6 C       10   1 H                                       1.0961632
     1   6 C       11   1 H                                       1.0954751
     1   6 C       12   1 H                                       1.0929323
     3   6 C       13   1 H                                       1.0904671
     4   6 C       14   1 H                                       1.0823309 (min)
     6   6 C       15   1 H                                       1.0996902
     6   6 C       16   1 H                                       1.0941042
     6   6 C       17   1 H                                       1.0906719

 * 4 distinct bonds (by element types)

   Z      Z             #   av. dist./Å        max./Å        min./Å
   1 H    6 C           8     1.0927294     1.0996902     1.0823309
   6 C    6 C           2     1.3791205     1.3820096     1.3762314
   6 C    7 N           2     1.4047124     1.4405627     1.3688622
   7 N   16 S           1     1.6550573     1.6550573     1.6550573


optimized geometry written to: xtbopt.xyz


           -------------------------------------------------
          | TOTAL ENERGY              -28.053931433451 Eh   |
          | GRADIENT NORM               0.000287363921 Eh/α |
          | HOMO-LUMO GAP               2.820195097426 eV   |
           -------------------------------------------------

------------------------------------------------------------------------
 * finished run on 2026/01/15 at 10:10:57.565     
------------------------------------------------------------------------
 total:
 * wall-time:     0 d,  0 h,  0 min, 38.444 sec
 *  cpu-time:     0 d,  0 h,  3 min, 43.146 sec
 * ratio c/w:     5.804 speedup
 SCF:
 * wall-time:     0 d,  0 h,  0 min,  1.723 sec
 *  cpu-time:     0 d,  0 h,  0 min,  7.565 sec
 * ratio c/w:     4.391 speedup
 ANC optimizer:
 * wall-time:     0 d,  0 h,  0 min, 36.561 sec
 *  cpu-time:     0 d,  0 h,  3 min, 34.967 sec
 * ratio c/w:     5.880 speedup

