17
 energy: -28.053931433451 gnorm: 0.000287363921 xtb: 6.7.1 (edcfbbe)
C           -2.96348936410948        0.30719354467305       -0.25242865028896
C           -1.48935468460267        0.11651445971982       -0.13364867245094
C           -0.76763935321408       -0.89316458275121       -0.72836520420128
C            0.60871073021862       -0.98155320866175       -0.64005915601255
N            1.37690173308284        0.05264538645607       -0.17735062173888
C            2.74072826550791       -0.19660309612406        0.21389456797420
N            0.85806418631991        1.24482683333699        0.23375492732344
S           -0.59419372596563        1.16583765469392        1.02364206967637
O           -0.45974433985962        0.32720836083775        2.26600591527793
H           -3.20588854545858        1.31181943863093       -0.61786406332018
H           -3.45832506472037        0.18927898094466        0.71777713557919
H           -3.39268172587258       -0.42081863495570       -0.94546045231870
H           -1.29016951980794       -1.67134874352967       -1.28559935306658
H            1.15694489420189       -1.84081908155405       -1.00412145968863
H            2.80296917186636       -0.65486610513402        1.21161161010585
H            3.22412851628698       -0.86095097774461       -0.50862173462319
H            3.26388582612657        0.75997977116185        0.24253714177297
