17
 energy: -27.872922699310 gnorm: 0.000599106297 xtb: 6.7.1 (edcfbbe)
C           -2.93223088294705        0.37333654825497       -0.35661776804143
C           -1.50403206250275        0.07124739477803       -0.09260749850660
C           -0.78831388419586       -0.93272525740407       -0.62511098337591
C            0.60988826326218       -1.06028298330631       -0.41862991829061
N            1.32601763522314       -0.05840877552064        0.04691135839402
C            2.77543705305620       -0.15034718669739        0.06658026493339
N            0.86448047934542        1.07162387954226        0.49030508100634
S           -0.68008031590315        1.11327953553212        1.16082572315157
O           -0.65434174734510        0.24188087259214        2.34111860125740
H           -3.03826236482916        1.40823980730159       -0.68257035741145
H           -3.51051016298766        0.25873985204690        0.56104492423827
H           -3.34488258554285       -0.28391862594223       -1.12034042514185
H           -1.25605364843253       -1.67139680389449       -1.26451797540573
H            1.13549381415430       -1.94235318426478       -0.74254021897930
H            3.09934991104962       -0.53243218188877        1.03537711238639
H            3.13325951905827       -0.80494487497300       -0.72456227415673
H            3.17562797953709        0.85364198384387       -0.05896164605783
