      -----------------------------------------------------------      
     |                   =====================                   |     
     |                           x T B                           |     
     |                   =====================                   |     
     |                         S. Grimme                         |     
     |          Mulliken Center for Theoretical Chemistry        |     
     |                    University of Bonn                     |     
      -----------------------------------------------------------      

   * xtb version 6.7.1 (edcfbbe) compiled by 'conda@c0858423619e' on 2025-09-04

   xtb is free software: you can redistribute it and/or modify it under
   the terms of the GNU Lesser General Public License as published by
   the Free Software Foundation, either version 3 of the License, or
   (at your option) any later version.
   
   xtb is distributed in the hope that it will be useful,
   but WITHOUT ANY WARRANTY; without even the implied warranty of
   MERCHANTABILITY or FITNESS FOR A PARTICULAR PURPOSE.  See the
   GNU Lesser General Public License for more details.
   
   Cite this work as:
   * C. Bannwarth, E. Caldeweyher, S. Ehlert, A. Hansen, P. Pracht,
     J. Seibert, S. Spicher, S. Grimme, WIREs Comput. Mol. Sci., 2020, 11,
     e01493. DOI: 10.1002/wcms.1493
   
   for GFN2-xTB:
   * C. Bannwarth, S. Ehlert and S. Grimme., J. Chem. Theory Comput., 2019,
     15, 1652-1671. DOI: 10.1021/acs.jctc.8b01176
   for GFN1-xTB:
   * S. Grimme, C. Bannwarth, P. Shushkov, J. Chem. Theory Comput., 2017,
     13, 1989-2009. DOI: 10.1021/acs.jctc.7b00118
   for GFN0-xTB:
   * P. Pracht, E. Caldeweyher, S. Ehlert, S. Grimme, ChemRxiv, 2019, preprint.
     DOI: 10.26434/chemrxiv.8326202.v1
   for GFN-FF:
   * S. Spicher and S. Grimme, Angew. Chem. Int. Ed., 2020, 59, 15665-15673.
     DOI: 10.1002/anie.202004239
   
   for ALPB and GBSA implicit solvation:
   * S. Ehlert, M. Stahn, S. Spicher, S. Grimme, J. Chem. Theory Comput.,
     2021, 17, 4250-4261. DOI: 10.1021/acs.jctc.1c00471
   
   for ddCOSMO and CPCM-X implicit solvation:
   * M. Stahn, S. Ehlert, S. Grimme, J. Phys. Chem. A,
     2023, XX, XXXX-XXXX. DOI: 10.1021/acs.jpca.3c04382
   
   for DFT-D4:
   * E. Caldeweyher, C. Bannwarth and S. Grimme, J. Chem. Phys., 2017,
     147, 034112. DOI: 10.1063/1.4993215
   * E. Caldeweyher, S. Ehlert, A. Hansen, H. Neugebauer, S. Spicher,
     C. Bannwarth and S. Grimme, J. Chem. Phys., 2019, 150, 154122.
     DOI: 10.1063/1.5090222
   * E. Caldeweyher, J.-M. Mewes, S. Ehlert and S. Grimme, Phys. Chem. Chem. Phys.
     2020, 22, 8499-8512. DOI: 10.1039/D0CP00502A
   
   for sTDA-xTB:
   * S. Grimme and C. Bannwarth, J. Chem. Phys., 2016, 145, 054103.
     DOI: 10.1063/1.4959605
   
   in the mass-spec context:
   * V. Asgeirsson, C. Bauer and S. Grimme, Chem. Sci., 2017, 8, 4879.
     DOI: 10.1039/c7sc00601b
   * J. Koopman and S. Grimme, ACS Omega 2019, 4, 12, 15120-15133.
     DOI: 10.1021/acsomega.9b02011
   
   for metadynamics refer to:
   * S. Grimme, J. Chem. Theory Comput., 2019, 155, 2847-2862
     DOI: 10.1021/acs.jctc.9b00143
   
   for SPH calculations refer to:
   * S. Spicher and S. Grimme, J. Chem. Theory Comput., 2021, 17, 1701-1714
     DOI: 10.1021/acs.jctc.0c01306
   
   for ONIOM refer to:
   * C. Plett, A. Katbashev, S. Ehlert, S. Grimme, M. Bursch,
     Phys. Chem. Chem. Phys., 2023, 25, 17860-17868. DOI: 10.1039/D3CP02178E
   
   for DIPRO refer to:
   * J. Kohn, N. Gildemeister, S. Grimme, D. Fazzi, A. Hansen,
     J. Chem. Phys., 2023, just accepted.
   
   for PTB refer to:
   * S. Grimme, M. Mueller, A. Hansen, J. Chem. Phys., 2023, 158, 124111.
     DOI: 10.1063/5.0137838
   
   with help from (in alphabetical order)
   P. Atkinson, C. Bannwarth, F. Bohle, G. Brandenburg, E. Caldeweyher
   M. Checinski, S. Dohm, S. Ehlert, S. Ehrlich, I. Gerasimov, C. Hölzer
   A. Katbashev, J. Kohn, J. Koopman, C. Lavigne, S. Lehtola, F. März, M. Müller,
   F. Musil, H. Neugebauer, J. Pisarek, C. Plett, P. Pracht, F. Pultar,
   J. Seibert, P. Shushkov, S. Spicher, M. Stahn, M. Steiner, T. Strunk,
   J. Stückrath, T. Rose, and J. Unsleber
   
 * started run on 2026/01/15 at 10:27:16.673     
   ID    Z sym.   atoms
    1    6 C      1, 3-6
    2    7 N      2, 7
    3    1 H      8-15

           -------------------------------------------------
          |                Calculation Setup                |
           -------------------------------------------------

          program call               : /h/28/cicsy/miniforge3/envs/elagente/bin/xtb product_1-3-dimethylpyrazole.xyz --opt --gfn 2 -P 4 --chrg -1
          coordinate file            : product_1-3-dimethylpyrazole.xyz
          omp threads                :                     4


           -------------------------------------------------
          |                 G F N 2 - x T B                 |
           -------------------------------------------------

        Reference                      10.1021/acs.jctc.8b01176
      * Hamiltonian:
        H0-scaling (s, p, d)           1.850000    2.230000    2.230000
        zeta-weighting                 0.500000
      * Dispersion:
        s8                             2.700000
        a1                             0.520000
        a2                             5.000000
        s9                             5.000000
      * Repulsion:
        kExp                           1.500000    1.000000
        rExp                           1.000000
      * Coulomb:
        alpha                          2.000000
        third order                    shell-resolved
        anisotropic                    true
        a3                             3.000000
        a5                             4.000000
        cn-shift                       1.200000
        cn-exp                         4.000000
        max-rad                        5.000000


          ...................................................
          :                      SETUP                      :
          :.................................................:
          :  # basis functions                  36          :
          :  # atomic orbitals                  36          :
          :  # shells                           22          :
          :  # electrons                        39          :
          :  max. iterations                   250          :
          :  Hamiltonian                  GFN2-xTB          :
          :  restarted?                      false          :
          :  GBSA solvation                  false          :
          :  PC potential                    false          :
          :  electronic temp.          300.0000000     K    :
          :  accuracy                    1.0000000          :
          :  -> integral cutoff          0.2500000E+02      :
          :  -> integral neglect         0.1000000E-07      :
          :  -> SCF convergence          0.1000000E-05 Eh   :
          :  -> wf. convergence          0.1000000E-03 e    :
          :  Broyden damping             0.4000000          :
          :  net charge                         -1          :
          :  unpaired electrons                  0          :
          ...................................................

 iter      E             dE          RMSdq      gap      omega  full diag
   1    -20.9078802 -0.209079E+02  0.333E+00    0.89       0.0  T
   2    -20.9721709 -0.642907E-01  0.187E+00    1.21       1.0  T
   3    -20.9709237  0.124725E-02  0.128E+00    1.12       1.0  T
   4    -20.9707306  0.193111E-03  0.835E-01    1.17       1.0  T
   5    -20.9779849 -0.725427E-02  0.130E-01    1.15       1.0  T
   6    -20.9780542 -0.693117E-04  0.570E-02    1.11       1.0  T
   7    -20.9780601 -0.588497E-05  0.211E-02    1.12       1.2  T
   8    -20.9780605 -0.447639E-06  0.647E-03    1.11       4.0  T
   9    -20.9780607 -0.197631E-06  0.173E-03    1.11      14.9  T
  10    -20.9780607 -0.114394E-07  0.694E-04    1.11      37.2  T
  11    -20.9780607 -0.123272E-09  0.240E-04    1.11     107.7  T

   *** convergence criteria satisfied after 11 iterations ***

         #    Occupation            Energy/Eh            Energy/eV
      -------------------------------------------------------------
         1        2.0000           -0.4482866             -12.1985
       ...           ...                  ...                  ...
        14        2.0000           -0.2533588              -6.8942
        15        2.0000           -0.2402002              -6.5362
        16        2.0000           -0.2172865              -5.9127
        17        2.0000           -0.1501147              -4.0848
        18        2.0000           -0.1314730              -3.5776
        19        2.0000           -0.1293118              -3.5188
        20        1.0000            0.0508911               1.3848 (HOMO)
        21                          0.0918292               2.4988 (LUMO)
        22                          0.2134927               5.8094
        23                          0.2774440               7.5496
        24                          0.2882996               7.8450
        25                          0.3042914               8.2802
       ...                                ...                  ...
        36                          0.9075518              24.6957
      -------------------------------------------------------------
                  HL-Gap            0.0409380 Eh            1.1140 eV
             Fermi-level            0.0160749 Eh            0.4374 eV

 SCC (total)                   0 d,  0 h,  0 min,  2.184 sec
 SCC setup                      ...        0 min,  0.017 sec (  0.763%)
 Dispersion                     ...        0 min,  0.051 sec (  2.336%)
 classical contributions        ...        0 min,  0.016 sec (  0.715%)
 integral evaluation            ...        0 min,  0.022 sec (  1.003%)
 iterations                     ...        0 min,  1.891 sec ( 86.582%)
 molecular gradient             ...        0 min,  0.188 sec (  8.593%)
 printout                       ...        0 min,  0.000 sec (  0.007%)

         :::::::::::::::::::::::::::::::::::::::::::::::::::::
         ::                     SUMMARY                     ::
         :::::::::::::::::::::::::::::::::::::::::::::::::::::
         :: total energy             -20.693374232784 Eh    ::
         :: gradient norm              0.174623922339 Eh/a0 ::
         :: HOMO-LUMO gap              1.113980734051 eV    ::
         ::.................................................::
         :: SCC energy               -20.978054151398 Eh    ::
         :: -> isotropic ES            0.138573961559 Eh    ::
         :: -> anisotropic ES          0.011757218357 Eh    ::
         :: -> anisotropic XC          0.017033980105 Eh    ::
         :: -> dispersion             -0.011397390251 Eh    ::
         :: repulsion energy           0.284679918614 Eh    ::
         :: add. restraining           0.000000000000 Eh    ::
         :: total charge              -1.000000000000 e     ::
         :::::::::::::::::::::::::::::::::::::::::::::::::::::

      ----------------------------------------------------------- 
     |                   =====================                   |
     |                        A N C O P T                        |
     |                   =====================                   |
     |               Approximate Normal Coordinate               |
     |                Rational Function Optimizer                |
      ----------------------------------------------------------- 
      ----------------------------------------------------------- 
     |                   =====================                   |
     |                        A N C O P T                        |
     |                   =====================                   |
     |               Approximate Normal Coordinate               |
     |                Rational Function Optimizer                |
      ----------------------------------------------------------- 

          ...................................................
          :                      SETUP                      :
          :.................................................:
          :   optimization level            normal          :
          :   max. optcycles                   200          :
          :   ANC micro-cycles                  20          :
          :   degrees of freedom                39          :
          :.................................................:
          :   RF solver                   davidson          :
          :   write xtbopt.log                true          :
          :   linear?                        false          :
          :   energy convergence         0.5000000E-05 Eh   :
          :   grad. convergence          0.1000000E-02 Eh/α :
          :   maxmium RF displ.          1.0000000          :
          :   Hlow (freq-cutoff)         0.1000000E-01      :
          :   Hmax (freq-cutoff)         5.0000000          :
          :   S6 in model hess.         20.0000000          :
          ...................................................

generating ANC from exact Hessian ...
Using Lindh-Hessian (1995)
 Shifting diagonal of input Hessian by    4.1238786077631108E-003
 Lowest  eigenvalues of input Hessian
    0.000000    0.000000    0.000000    0.000000    0.000000    0.000000
    0.010000    0.011939    0.017520    0.018196    0.018437    0.035128
    0.043382    0.046480    0.062079    0.071172    0.076778    0.091030
 Highest eigenvalues
    1.159217    1.572858    1.835462    1.853548    2.050583    2.080835


........................................................................
.............................. CYCLE    1 ..............................
........................................................................

 iter      E             dE          RMSdq      gap      omega  full diag
   1    -20.9780607 -0.209781E+02  0.445E-05    1.11       0.0  T
   2    -20.9780607 -0.117595E-11  0.275E-05    1.11     937.8  T
   3    -20.9780607  0.224176E-11  0.173E-05    1.11    1494.1  T
     SCC iter.                  ...        0 min,  0.308 sec
     gradient                   ...        0 min,  0.149 sec
 * total energy  :   -20.6933742 Eh     change       -0.3024780E-09 Eh
   gradient norm :     0.1746248 Eh/α   predicted     0.0000000E+00 (-100.00%)
   displ. norm   :     0.2164815 α      lambda       -0.2515852E-01
   maximum displ.:     0.0983385 α      in ANC's #25, #10, #8, ...

........................................................................
.............................. CYCLE    2 ..............................
........................................................................

 iter      E             dE          RMSdq      gap      omega  full diag
   1    -20.9822993 -0.209823E+02  0.430E-01    1.52       0.0  T
   2    -20.9827612 -0.461973E-03  0.256E-01    1.42       1.0  T
   3    -20.9826927  0.685215E-04  0.167E-01    1.46       1.0  T
   4    -20.9828288 -0.136110E-03  0.787E-02    1.45       1.0  T
   5    -20.9828910 -0.622072E-04  0.185E-02    1.44       1.4  T
   6    -20.9828935 -0.246905E-05  0.619E-03    1.45       4.2  T
   7    -20.9828935 -0.206741E-07  0.231E-03    1.45      11.2  T
   8    -20.9828935 -0.149692E-07  0.758E-04    1.45      34.1  T
   9    -20.9828936 -0.136343E-08  0.172E-04    1.45     149.8  T
     SCC iter.                  ...        0 min,  1.668 sec
     gradient                   ...        0 min,  0.170 sec
 * total energy  :   -20.7097492 Eh     change       -0.1637493E-01 Eh
   gradient norm :     0.0618216 Eh/α   predicted    -0.1316878E-01 ( -19.58%)
   displ. norm   :     0.1582371 α      lambda       -0.4976652E-02
   maximum displ.:     0.0539476 α      in ANC's #3, #5, #7, ...

........................................................................
.............................. CYCLE    3 ..............................
........................................................................

 iter      E             dE          RMSdq      gap      omega  full diag
   1    -20.9833393 -0.209833E+02  0.232E-01    1.71       0.0  T
   2    -20.9834791 -0.139786E-03  0.141E-01    1.64       1.0  T
   3    -20.9834750  0.408054E-05  0.892E-02    1.67       1.0  T
   4    -20.9835132 -0.381757E-04  0.387E-02    1.66       1.0  T
   5    -20.9835292 -0.159520E-04  0.936E-03    1.66       2.8  T
   6    -20.9835297 -0.564294E-06  0.341E-03    1.66       7.6  T
   7    -20.9835297 -0.104076E-08  0.109E-03    1.66      23.8  T
   8    -20.9835297 -0.633867E-08  0.326E-04    1.66      79.2  T
   9    -20.9835297 -0.116859E-09  0.951E-05    1.66     271.4  T
     SCC iter.                  ...        0 min,  0.780 sec
     gradient                   ...        0 min,  0.166 sec
 * total energy  :   -20.7129145 Eh     change       -0.3165315E-02 Eh
   gradient norm :     0.0171665 Eh/α   predicted    -0.2550633E-02 ( -19.42%)
   displ. norm   :     0.2203280 α      lambda       -0.1542370E-02
   maximum displ.:     0.1175090 α      in ANC's #3, #1, #7, ...

........................................................................
.............................. CYCLE    4 ..............................
........................................................................

 iter      E             dE          RMSdq      gap      omega  full diag
   1    -20.9820609 -0.209821E+02  0.175E-01    1.83       0.0  T
   2    -20.9821248 -0.639038E-04  0.107E-01    1.79       1.0  T
   3    -20.9821153  0.944706E-05  0.676E-02    1.81       1.0  T
   4    -20.9821488 -0.334736E-04  0.235E-02    1.80       1.1  T
   5    -20.9821545 -0.569546E-05  0.656E-03    1.80       3.9  T
   6    -20.9821547 -0.185832E-06  0.293E-03    1.80       8.8  T
   7    -20.9821547 -0.501171E-08  0.552E-04    1.80      46.8  T
   8    -20.9821547 -0.182844E-08  0.223E-04    1.80     115.7  T
     SCC iter.                  ...        0 min,  0.769 sec
     gradient                   ...        0 min,  0.205 sec
 * total energy  :   -20.7141964 Eh     change       -0.1281942E-02 Eh
   gradient norm :     0.0178676 Eh/α   predicted    -0.8086233E-03 ( -36.92%)
   displ. norm   :     0.5877941 α      lambda       -0.3169241E-02
   maximum displ.:     0.3311789 α      in ANC's #1, #3, #7, ...

........................................................................
.............................. CYCLE    5 ..............................
........................................................................

 iter      E             dE          RMSdq      gap      omega  full diag
   1    -20.9729821 -0.209730E+02  0.420E-01    2.18       0.0  T
   2    -20.9734086 -0.426487E-03  0.263E-01    2.08       1.0  T
   3    -20.9733835  0.250663E-04  0.153E-01    2.12       1.0  T
   4    -20.9735176 -0.134079E-03  0.578E-02    2.10       1.0  T
   5    -20.9735543 -0.366578E-04  0.155E-02    2.09       1.7  T
   6    -20.9735556 -0.134926E-05  0.720E-03    2.10       3.6  T
   7    -20.9735557 -0.653611E-07  0.100E-03    2.09      25.8  T
   8    -20.9735557 -0.236540E-08  0.522E-04    2.09      49.5  T
   9    -20.9735557 -0.803190E-09  0.158E-04    2.09     163.7  T
     SCC iter.                  ...        0 min,  0.712 sec
     gradient                   ...        0 min,  0.145 sec
 * total energy  :   -20.7156780 Eh     change       -0.1481624E-02 Eh
   gradient norm :     0.0443209 Eh/α   predicted    -0.2132109E-02 (  43.90%)
   displ. norm   :     0.0782223 α      lambda       -0.1600782E-02
   maximum displ.:     0.0453645 α      in ANC's #8, #1, #23, ...

........................................................................
.............................. CYCLE    6 ..............................
........................................................................

 iter      E             dE          RMSdq      gap      omega  full diag
   1    -20.9795173 -0.209795E+02  0.958E-02    2.01       0.0  T
   2    -20.9795480 -0.306967E-04  0.614E-02    2.04       1.0  T
   3    -20.9795507 -0.270093E-05  0.318E-02    2.03       1.0  T
   4    -20.9795521 -0.133062E-05  0.102E-02    2.04       2.5  T
   5    -20.9795530 -0.976256E-06  0.385E-03    2.04       6.7  T
   6    -20.9795532 -0.173338E-06  0.133E-03    2.04      19.4  T
   7    -20.9795532 -0.416905E-08  0.374E-04    2.04      69.1  T
   8    -20.9795532 -0.666944E-09  0.125E-04    2.04     207.4  T
     SCC iter.                  ...        0 min,  0.822 sec
     gradient                   ...        0 min,  0.150 sec
 * total energy  :   -20.7169430 Eh     change       -0.1264978E-02 Eh
   gradient norm :     0.0303611 Eh/α   predicted    -0.8052878E-03 ( -36.34%)
   displ. norm   :     0.4587462 α      lambda       -0.3422840E-02
   maximum displ.:     0.2942028 α      in ANC's #1, #3, #8, ...

........................................................................
.............................. CYCLE    7 ..............................
........................................................................

 iter      E             dE          RMSdq      gap      omega  full diag
   1    -20.9852523 -0.209853E+02  0.240E-01    2.02       0.0  T
   2    -20.9853074 -0.551131E-04  0.142E-01    2.04       1.0  T
   3    -20.9852776  0.297722E-04  0.912E-02    2.03       1.0  T
   4    -20.9853441 -0.665255E-04  0.217E-02    2.03       1.2  T
   5    -20.9853491 -0.501467E-05  0.865E-03    2.03       3.0  T
   6    -20.9853494 -0.289566E-06  0.261E-03    2.03       9.9  T
   7    -20.9853494 -0.996408E-08  0.818E-04    2.03      31.6  T
   8    -20.9853494 -0.111234E-08  0.319E-04    2.03      81.0  T
     SCC iter.                  ...        0 min,  0.761 sec
     gradient                   ...        0 min,  0.154 sec
 * total energy  :   -20.7193802 Eh     change       -0.2437200E-02 Eh
   gradient norm :     0.0097799 Eh/α   predicted    -0.2071593E-02 ( -15.00%)
   displ. norm   :     0.4493777 α      lambda       -0.1513785E-02
   maximum displ.:     0.2915670 α      in ANC's #1, #3, #7, ...

........................................................................
.............................. CYCLE    8 ..............................
........................................................................

 iter      E             dE          RMSdq      gap      omega  full diag
   1    -20.9824285 -0.209824E+02  0.224E-01    2.11       0.0  T
   2    -20.9824677 -0.391840E-04  0.133E-01    2.10       1.0  T
   3    -20.9824178  0.498994E-04  0.893E-02    2.10       1.0  T
   4    -20.9825005 -0.827236E-04  0.148E-02    2.09       1.7  T
   5    -20.9825018 -0.127210E-05  0.664E-03    2.10       3.9  T
   6    -20.9825018 -0.518157E-07  0.257E-03    2.10      10.1  T
   7    -20.9825019 -0.442718E-07  0.637E-04    2.10      40.5  T
   8    -20.9825019 -0.550319E-09  0.217E-04    2.10     119.1  T
     SCC iter.                  ...        0 min,  0.937 sec
     gradient                   ...        0 min,  0.200 sec
 * total energy  :   -20.7202046 Eh     change       -0.8243416E-03 Eh
   gradient norm :     0.0153289 Eh/α   predicted    -0.9097425E-03 (  10.36%)
   displ. norm   :     0.0980234 α      lambda       -0.5060490E-03
   maximum displ.:     0.0480808 α      in ANC's #1, #3, #8, ...

........................................................................
.............................. CYCLE    9 ..............................
........................................................................

 iter      E             dE          RMSdq      gap      omega  full diag
   1    -20.9878013 -0.209878E+02  0.641E-02    2.10       0.0  T
   2    -20.9878044 -0.312820E-05  0.377E-02    2.10       1.0  T
   3    -20.9878010  0.346212E-05  0.266E-02    2.10       1.0  T
   4    -20.9878074 -0.641693E-05  0.485E-03    2.10       5.3  T
   5    -20.9878075 -0.128400E-06  0.219E-03    2.10      11.8  T
   6    -20.9878075 -0.187517E-07  0.761E-04    2.10      33.9  T
   7    -20.9878075 -0.190491E-08  0.202E-04    2.10     127.7  T
     SCC iter.                  ...        0 min,  0.868 sec
     gradient                   ...        0 min,  0.167 sec
 * total energy  :   -20.7205196 Eh     change       -0.3150612E-03 Eh
   gradient norm :     0.0127037 Eh/α   predicted    -0.2554559E-03 ( -18.92%)
   displ. norm   :     0.1900833 α      lambda       -0.3699911E-03
   maximum displ.:     0.1191343 α      in ANC's #1, #3, #5, ...

........................................................................
.............................. CYCLE   10 ..............................
........................................................................

 iter      E             dE          RMSdq      gap      omega  full diag
   1    -20.9885932 -0.209886E+02  0.851E-02    2.16       0.0  T
   2    -20.9886018 -0.855030E-05  0.521E-02    2.14       1.0  T
   3    -20.9885988  0.294694E-05  0.353E-02    2.15       1.0  T
   4    -20.9886100 -0.111565E-04  0.573E-03    2.15       4.5  T
   5    -20.9886102 -0.191999E-06  0.225E-03    2.15      11.5  T
   6    -20.9886102 -0.154513E-07  0.104E-03    2.15      24.9  T
   7    -20.9886102 -0.366392E-08  0.169E-04    2.15     153.1  T
   8    -20.9886102 -0.571951E-10  0.919E-05    2.15     281.0  T
     SCC iter.                  ...        0 min,  0.844 sec
     gradient                   ...        0 min,  0.217 sec
 * total energy  :   -20.7207980 Eh     change       -0.2783718E-03 Eh
   gradient norm :     0.0096000 Eh/α   predicted    -0.1916803E-03 ( -31.14%)
   displ. norm   :     0.2034753 α      lambda       -0.2764385E-03
   maximum displ.:     0.1416310 α      in ANC's #1, #3, #5, ...

........................................................................
.............................. CYCLE   11 ..............................
........................................................................

 iter      E             dE          RMSdq      gap      omega  full diag
   1    -20.9882742 -0.209883E+02  0.878E-02    2.22       0.0  T
   2    -20.9882911 -0.169153E-04  0.536E-02    2.20       1.0  T
   3    -20.9882898  0.133176E-05  0.332E-02    2.21       1.0  T
   4    -20.9882977 -0.795454E-05  0.982E-03    2.20       2.6  T
   5    -20.9882986 -0.850954E-06  0.263E-03    2.20       9.8  T
   6    -20.9882986 -0.372248E-07  0.116E-03    2.20      22.2  T
   7    -20.9882986 -0.224397E-08  0.209E-04    2.20     123.4  T
   8    -20.9882986 -0.157879E-09  0.103E-04    2.20     250.3  T
     SCC iter.                  ...        0 min,  0.800 sec
     gradient                   ...        0 min,  0.179 sec
 * total energy  :   -20.7209667 Eh     change       -0.1687028E-03 Eh
   gradient norm :     0.0057359 Eh/α   predicted    -0.1439443E-03 ( -14.68%)
   displ. norm   :     0.0739534 α      lambda       -0.6034167E-04
   maximum displ.:     0.0460127 α      in ANC's #1, #3, #5, ...

........................................................................
.............................. CYCLE   12 ..............................
........................................................................

 iter      E             dE          RMSdq      gap      omega  full diag
   1    -20.9885288 -0.209885E+02  0.341E-02    2.23       0.0  T
   2    -20.9885313 -0.248894E-05  0.218E-02    2.22       1.2  T
   3    -20.9885327 -0.140453E-05  0.132E-02    2.22       2.0  T
   4    -20.9885337 -0.101339E-05  0.359E-03    2.22       7.2  T
   5    -20.9885338 -0.647245E-07  0.887E-04    2.22      29.1  T
   6    -20.9885338 -0.316799E-08  0.444E-04    2.22      58.2  T
     SCC iter.                  ...        0 min,  0.577 sec
     gradient                   ...        0 min,  0.208 sec
 * total energy  :   -20.7210059 Eh     change       -0.3925229E-04 Eh
   gradient norm :     0.0034123 Eh/α   predicted    -0.3033700E-04 ( -22.71%)
   displ. norm   :     0.0930672 α      lambda       -0.4407763E-04
   maximum displ.:     0.0710157 α      in ANC's #1, #2, #5, ...

........................................................................
.............................. CYCLE   13 ..............................
........................................................................

 iter      E             dE          RMSdq      gap      omega  full diag
   1    -20.9882573 -0.209883E+02  0.359E-02    2.24       0.0  T
   2    -20.9882587 -0.133128E-05  0.198E-02    2.23       1.3  T
   3    -20.9882586  0.908200E-07  0.638E-03    2.23       4.0  T
   4    -20.9882587 -0.127996E-06  0.315E-03    2.23       8.2  T
   5    -20.9882588 -0.117378E-06  0.873E-04    2.23      29.6  T
   6    -20.9882588 -0.122314E-08  0.408E-04    2.23      63.4  T
     SCC iter.                  ...        0 min,  0.586 sec
     gradient                   ...        0 min,  0.226 sec
 * total energy  :   -20.7210294 Eh     change       -0.2348695E-04 Eh
   gradient norm :     0.0022917 Eh/α   predicted    -0.2223205E-04 (  -5.34%)
   displ. norm   :     0.0259641 α      lambda       -0.1865071E-04
   maximum displ.:     0.0189383 α      in ANC's #2, #3, #11, ...

........................................................................
.............................. CYCLE   14 ..............................
........................................................................

 iter      E             dE          RMSdq      gap      omega  full diag
   1    -20.9887057 -0.209887E+02  0.151E-02    2.23       0.0  T
   2    -20.9887059 -0.192264E-06  0.905E-03    2.23       2.9  T
   3    -20.9887058  0.391590E-07  0.308E-03    2.23       8.4  T
   4    -20.9887059 -0.712420E-07  0.699E-04    2.23      36.9  T
   5    -20.9887059 -0.268432E-08  0.284E-04    2.23      91.0  T
     SCC iter.                  ...        0 min,  0.401 sec
     gradient                   ...        0 min,  0.141 sec
 * total energy  :   -20.7210410 Eh     change       -0.1158784E-04 Eh
   gradient norm :     0.0017675 Eh/α   predicted    -0.9333026E-05 ( -19.46%)
   displ. norm   :     0.0394479 α      lambda       -0.8974583E-05
   maximum displ.:     0.0293318 α      in ANC's #2, #1, #3, ...

........................................................................
.............................. CYCLE   15 ..............................
........................................................................

 iter      E             dE          RMSdq      gap      omega  full diag
   1    -20.9883906 -0.209884E+02  0.166E-02    2.22       0.0  T
   2    -20.9883909 -0.338257E-06  0.997E-03    2.22       2.6  T
   3    -20.9883909  0.534226E-07  0.397E-03    2.22       6.5  T
   4    -20.9883910 -0.896362E-07  0.112E-03    2.22      23.1  T
   5    -20.9883910 -0.111829E-07  0.402E-04    2.22      64.2  T
   6    -20.9883910 -0.138322E-08  0.183E-04    2.22     140.7  T
     SCC iter.                  ...        0 min,  0.407 sec
     gradient                   ...        0 min,  0.001 sec
 * total energy  :   -20.7210481 Eh     change       -0.7062606E-05 Eh
   gradient norm :     0.0015205 Eh/α   predicted    -0.4491322E-05 ( -36.41%)
   displ. norm   :     0.0450952 α      lambda       -0.6612942E-05
   maximum displ.:     0.0338867 α      in ANC's #2, #3, #9, ...

........................................................................
.............................. CYCLE   16 ..............................
........................................................................

 iter      E             dE          RMSdq      gap      omega  full diag
   1    -20.9887213 -0.209887E+02  0.201E-02    2.22       0.0  T
   2    -20.9887215 -0.227681E-06  0.118E-02    2.22       2.2  T
   3    -20.9887213  0.219851E-06  0.515E-03    2.22       5.0  T
   4    -20.9887215 -0.269122E-06  0.137E-03    2.22      18.9  T
   5    -20.9887216 -0.199911E-07  0.443E-04    2.22      58.3  T
   6    -20.9887216 -0.745519E-09  0.215E-04    2.22     119.9  T
     SCC iter.                  ...        0 min,  0.564 sec
     gradient                   ...        0 min,  0.219 sec
 * total energy  :   -20.7210533 Eh     change       -0.5244047E-05 Eh
   gradient norm :     0.0015133 Eh/α   predicted    -0.3310720E-05 ( -36.87%)
   displ. norm   :     0.0354816 α      lambda       -0.5812507E-05
   maximum displ.:     0.0257703 α      in ANC's #2, #1, #5, ...

........................................................................
.............................. CYCLE   17 ..............................
........................................................................

 iter      E             dE          RMSdq      gap      omega  full diag
   1    -20.9883860 -0.209884E+02  0.145E-02    2.22       0.0  T
   2    -20.9883861 -0.124549E-06  0.910E-03    2.22       2.8  T
   3    -20.9883864 -0.317801E-06  0.634E-03    2.22       4.1  T
   4    -20.9883867 -0.233840E-06  0.532E-04    2.22      48.5  T
   5    -20.9883867 -0.438966E-09  0.255E-04    2.22     101.5  T
     SCC iter.                  ...        0 min,  0.539 sec
     gradient                   ...        0 min,  0.175 sec
 * total energy  :   -20.7210592 Eh     change       -0.5910881E-05 Eh
   gradient norm :     0.0010105 Eh/α   predicted    -0.2908747E-05 ( -50.79%)
   displ. norm   :     0.0498785 α      lambda       -0.4404188E-05
   maximum displ.:     0.0369975 α      in ANC's #2, #5, #1, ...

........................................................................
.............................. CYCLE   18 ..............................
........................................................................

 iter      E             dE          RMSdq      gap      omega  full diag
   1    -20.9883324 -0.209883E+02  0.163E-02    2.22       0.0  T
   2    -20.9883325 -0.122329E-06  0.987E-03    2.22       2.6  T
   3    -20.9883324  0.123025E-06  0.737E-03    2.22       3.5  T
   4    -20.9883328 -0.456580E-06  0.668E-04    2.22      38.6  T
   5    -20.9883328 -0.128320E-08  0.308E-04    2.22      83.7  T
     SCC iter.                  ...        0 min,  0.475 sec
     gradient                   ...        0 min,  0.181 sec
 * total energy  :   -20.7210636 Eh     change       -0.4338511E-05 Eh
   gradient norm :     0.0008204 Eh/α   predicted    -0.2203843E-05 ( -49.20%)
   displ. norm   :     0.0290726 α      lambda       -0.2047296E-05
   maximum displ.:     0.0213339 α      in ANC's #2, #5, #6, ...

   *** GEOMETRY OPTIMIZATION CONVERGED AFTER 18 ITERATIONS ***

------------------------------------------------------------------------
 total energy gain   :        -0.0276893 Eh      -17.3753 kcal/mol
 total RMSD          :         0.6101278 a0        0.3229 Å
 total power (kW/mol):        -4.0387981 (step)   -4.0386 (real)
------------------------------------------------------------------------

 ANCopt (total)                0 d,  0 h,  0 min, 18.001 sec
 optimizer setup                ...        0 min,  0.000 sec (  0.002%)
 model hessian                  ...        0 min,  0.001 sec (  0.008%)
 ANC generation                 ...        0 min,  0.000 sec (  0.002%)
 coordinate transformation      ...        0 min,  0.000 sec (  0.001%)
 single point calculation       ...        0 min, 17.701 sec ( 98.335%)
 optimization log               ...        0 min,  0.002 sec (  0.010%)
 hessian update                 ...        0 min,  0.282 sec (  1.568%)
 rational function              ...        0 min,  0.005 sec (  0.029%)

================
 final structure:
================
15
 xtb: 6.7.1 (edcfbbe)
C           -2.32842805074552        0.39711529963330       -0.14442521778806
N           -1.17632172942854       -0.12180689721176        0.58211007137084
C           -0.64652941988531       -1.37497956125738        0.12844184349976
C            0.71309877190044       -1.18082446183164       -0.13605807836811
C            1.00111987426207        0.13236302042148        0.20093955761587
C            2.33004095137013        0.81722023295127        0.11870015198655
N           -0.09816187123654        0.81288456566995        0.61793375392589
H           -2.15351782567931        0.52310253918265       -1.23114381503269
H           -3.17214731319595       -0.28845542140617       -0.01119725696445
H           -2.58855329153241        1.37215981216017        0.27298610400999
H           -1.31807402249467       -2.15185437013906       -0.20447147042087
H            1.41331030830961       -1.93057470190588       -0.48355295728085
H            2.58524638671825        1.08788499763349       -0.91500460207434
H            2.30928102678521        1.73341033074052        0.70869750193452
H            3.12963720485264        0.17235461535909        0.49604541358601

 Bond Distances (Angstroems)
 ---------------------------
C1-N2=1.4576         C1-H8=1.1079         C1-H9=1.0953         C1-H10=1.0921        N2-C1=1.4576         N2-C3=1.4342         
N2-N7=1.4274         C3-N2=1.4342         C3-C4=1.3987         C3-H11=1.0795        C4-C3=1.3987         C4-C5=1.3860         
C4-H12=1.0831        C5-C4=1.3860         C5-C6=1.4973         C5-N7=1.3585         C6-C5=1.4973         C6-H13=1.0986        
C6-H14=1.0899        C6-H15=1.0943        N7-N2=1.4274         N7-C5=1.3585         H8-C1=1.1079         H9-C1=1.0953         
H10-C1=1.0921        H11-C3=1.0795        H12-C4=1.0831        H13-C6=1.0986        H14-C6=1.0899        H15-C6=1.0943        
 C  H  Rav=1.0926 sigma=0.0083  Rmin=1.0795  Rmax=1.1079     8
 C  C  Rav=1.4273 sigma=0.0497  Rmin=1.3860  Rmax=1.4973     3
 N  C  Rav=1.4167 sigma=0.0423  Rmin=1.3585  Rmax=1.4576     3
 N  N  Rav=1.4274 sigma=0.0000  Rmin=1.4274  Rmax=1.4274     1

 selected bond angles (degree)
 --------------------
H8-C1-N2=113.87                H9-C1-N2=108.99                H9-C1-H8=108.19                H10-C1-N2=108.40               
H10-C1-H8=108.12               H10-C1-H9=109.20               C3-N2-C1=116.45                N7-N2-C1=112.11                
N7-N2-C3=107.52                C4-C3-N2=107.31                H11-C3-N2=119.77               H11-C3-C4=130.26               
C5-C4-C3=106.71                H12-C4-C3=126.37               H12-C4-C5=126.83               C6-C5-C4=127.19                
N7-C5-C4=112.40                N7-C5-C6=120.39                H13-C6-C5=111.75               H14-C6-C5=109.75               
H14-C6-H13=107.86              H15-C6-C5=111.10               H15-C6-H13=107.45              H15-C6-H14=108.82              
C5-N7-N2=105.99                

 selected dihedral angles (degree)
 ---------------------------------
C3-N2-C1-H8=303.29            C3-N2-C1-H9= 64.17            C3-N2-C1-H10=182.92           N7-N2-C1-H8= 67.70            
N7-N2-C1-H9=188.58            N7-N2-C1-H10=307.34           C4-C3-N2-C1=125.15            C4-C3-N2-N7=358.43            
H11-C3-N2-C1=321.76           H11-C3-N2-N7=195.04           C5-C4-C3-N2=  2.34            C5-C4-C3-H11=163.37           
H12-C4-C3-N2=179.20           H12-C4-C3-H11=340.23          C6-C5-C4-C3=178.96            C6-C5-C4-H12=  2.11           
N7-C5-C4-C3=357.64            N7-C5-C4-H12=180.79           H13-C6-C5-C4= 76.63           H13-C6-C5-N7=258.05           
H14-C6-C5-C4=196.24           H14-C6-C5-N7= 17.65           H15-C6-C5-C4=316.63           H15-C6-C5-N7=138.05           
C5-N7-N2-C1=230.93            C5-N7-N2-C3=  0.16            N2-N7-C5-C4=  1.36            N2-N7-C5-C6=180.14            
           -------------------------------------------------
          |                Final Singlepoint                |
           -------------------------------------------------

          ...................................................
          :                      SETUP                      :
          :.................................................:
          :  # basis functions                  36          :
          :  # atomic orbitals                  36          :
          :  # shells                           22          :
          :  # electrons                        39          :
          :  max. iterations                   250          :
          :  Hamiltonian                  GFN2-xTB          :
          :  restarted?                      false          :
          :  GBSA solvation                  false          :
          :  PC potential                    false          :
          :  electronic temp.          300.0000000     K    :
          :  accuracy                    1.0000000          :
          :  -> integral cutoff          0.2500000E+02      :
          :  -> integral neglect         0.1000000E-07      :
          :  -> SCF convergence          0.1000000E-05 Eh   :
          :  -> wf. convergence          0.1000000E-03 e    :
          :  Broyden damping             0.4000000          :
          :  net charge                         -1          :
          :  unpaired electrons                  0          :
          ...................................................

 iter      E             dE          RMSdq      gap      omega  full diag
   1    -20.9883328 -0.209883E+02  0.124E-04    2.22       0.0  T
   2    -20.9883328 -0.623928E-10  0.654E-05    2.22     394.9  T
   3    -20.9883328 -0.197637E-10  0.363E-05    2.22     710.4  T

   *** convergence criteria satisfied after 3 iterations ***

         #    Occupation            Energy/Eh            Energy/eV
      -------------------------------------------------------------
         1        2.0000           -0.4413862             -12.0107
       ...           ...                  ...                  ...
        14        2.0000           -0.2425521              -6.6002
        15        2.0000           -0.2304047              -6.2696
        16        2.0000           -0.2234756              -6.0811
        17        2.0000           -0.1617860              -4.4024
        18        2.0000           -0.1450167              -3.9461
        19        2.0000           -0.1383693              -3.7652
        20        1.0000           -0.0065527              -0.1783 (HOMO)
        21                          0.0751710               2.0455 (LUMO)
        22                          0.2167110               5.8970
        23                          0.2746030               7.4723
        24                          0.3030152               8.2455
        25                          0.3075722               8.3695
       ...                                ...                  ...
        36                          0.8436448              22.9567
      -------------------------------------------------------------
                  HL-Gap            0.0817238 Eh            2.2238 eV
             Fermi-level           -0.0190759 Eh           -0.5191 eV

 SCC (total)                   0 d,  0 h,  0 min,  0.759 sec
 SCC setup                      ...        0 min,  0.011 sec (  1.455%)
 Dispersion                     ...        0 min,  0.035 sec (  4.553%)
 classical contributions        ...        0 min,  0.012 sec (  1.627%)
 integral evaluation            ...        0 min,  0.043 sec (  5.663%)
 iterations                     ...        0 min,  0.491 sec ( 64.720%)
 molecular gradient             ...        0 min,  0.167 sec ( 21.959%)
 printout                       ...        0 min,  0.000 sec (  0.020%)

         :::::::::::::::::::::::::::::::::::::::::::::::::::::
         ::                     SUMMARY                     ::
         :::::::::::::::::::::::::::::::::::::::::::::::::::::
         :: total energy             -20.721063578206 Eh    ::
         :: gradient norm              0.000820930617 Eh/a0 ::
         :: HOMO-LUMO gap              2.223816770746 eV    ::
         ::.................................................::
         :: SCC energy               -20.988319451444 Eh    ::
         :: -> isotropic ES            0.136897485941 Eh    ::
         :: -> anisotropic ES          0.010660780087 Eh    ::
         :: -> anisotropic XC          0.017193815169 Eh    ::
         :: -> dispersion             -0.011504354598 Eh    ::
         :: repulsion energy           0.267255873238 Eh    ::
         :: add. restraining           0.000000000000 Eh    ::
         :: total charge              -1.000000000000 e     ::
         :::::::::::::::::::::::::::::::::::::::::::::::::::::

           -------------------------------------------------
          |                Property Printout                |
           -------------------------------------------------

    * Orbital Energies and Occupations

         #    Occupation            Energy/Eh            Energy/eV
      -------------------------------------------------------------
         1        2.0000           -0.4413862             -12.0107
       ...           ...                  ...                  ...
         8        2.0000           -0.3250179              -8.8442
         9        2.0000           -0.3164993              -8.6124
        10        2.0000           -0.3134235              -8.5287
        11        2.0000           -0.3045791              -8.2880
        12        2.0000           -0.2901254              -7.8947
        13        2.0000           -0.2693189              -7.3285
        14        2.0000           -0.2425521              -6.6002
        15        2.0000           -0.2304047              -6.2696
        16        2.0000           -0.2234756              -6.0811
        17        2.0000           -0.1617860              -4.4024
        18        2.0000           -0.1450167              -3.9461
        19        2.0000           -0.1383693              -3.7652
        20        1.0000           -0.0065527              -0.1783 (HOMO)
        21                          0.0751710               2.0455 (LUMO)
        22                          0.2167110               5.8970
        23                          0.2746030               7.4723
        24                          0.3030152               8.2455
        25                          0.3075722               8.3695
        26                          0.3254863               8.8569
        27                          0.3431331               9.3371
        28                          0.3553468               9.6695
        29                          0.3711400              10.0992
        30                          0.3751308              10.2078
        31                          0.3849085              10.4739
       ...                                ...                  ...
        36                          0.8436448              22.9567
      -------------------------------------------------------------
                  HL-Gap            0.0817238 Eh            2.2238 eV
             Fermi-level           -0.0190759 Eh           -0.5191 eV

     #   Z          covCN         q      C6AA      α(0)
     1   6 C        3.691     0.003    20.712     6.512
     2   7 N        2.881    -0.117    23.547     7.207
     3   6 C        2.949    -0.093    30.336     9.034
     4   6 C        2.949    -0.106    30.665     9.082
     5   6 C        3.031     0.022    27.495     8.601
     6   6 C        3.752    -0.076    22.017     6.691
     7   7 N        1.948    -0.410    31.628     8.340
     8   1 H        0.922    -0.020     3.423     2.893
     9   1 H        0.924    -0.012     3.282     2.833
    10   1 H        0.924     0.008     2.916     2.670
    11   1 H        0.926    -0.084     5.019     3.503
    12   1 H        0.925    -0.082     4.960     3.483
    13   1 H        0.923    -0.019     3.408     2.887
    14   1 H        0.925     0.003     2.999     2.708
    15   1 H        0.924    -0.018     3.386     2.878

 Mol. C6AA /au·bohr⁶  :       2620.442564
 Mol. C8AA /au·bohr⁸  :      57225.409597
 Mol. α(0) /au        :         79.323084


Wiberg/Mayer (AO) data.
largest (>0.10) Wiberg bond orders for each atom

 ---------------------------------------------------------------------------
     #   Z sym  total        # sym  WBO       # sym  WBO       # sym  WBO
 ---------------------------------------------------------------------------
     1   6 C    3.996 --     2 N    1.003    10 H    0.985     9 H    0.983
                             8 H    0.971
     2   7 N    3.257 --     3 C    1.082     7 N    1.055     1 C    1.003
     3   6 C    3.719 --     4 C    1.398     2 N    1.082    11 H    0.964
                             7 N    0.118     5 C    0.104
     4   6 C    3.944 --     5 C    1.409     3 C    1.398    12 H    0.966
                             7 N    0.103
     5   6 C    3.937 --     4 C    1.409     7 N    1.361     6 C    1.003
                             3 C    0.104
     6   6 C    3.986 --     5 C    1.003    14 H    0.988    15 H    0.984
                            13 H    0.977
     7   7 N    2.718 --     5 C    1.361     2 N    1.055     3 C    0.118
                             4 C    0.103
     8   1 H    1.000 --     1 C    0.971
     9   1 H    0.999 --     1 C    0.983
    10   1 H    1.000 --     1 C    0.985
    11   1 H    0.993 --     3 C    0.964
    12   1 H    0.993 --     4 C    0.966
    13   1 H    1.000 --     6 C    0.977
    14   1 H    1.000 --     6 C    0.988
    15   1 H    1.000 --     6 C    0.984
 ---------------------------------------------------------------------------

Topologies differ in total number of bonds
Writing topology from bond orders to xtbtopo.mol

molecular dipole:
                 x           y           z       tot (Debye)
 q only:       -0.079       0.378      -0.435
   full:        0.072       0.076      -0.934       2.389
molecular quadrupole (traceless):
                xx          xy          yy          xz          yz          zz
 q only:       -2.068      -1.099      -1.832       0.562      -1.505       3.900
  q+dip:        0.461      -0.583      -2.297       1.302      -1.042       1.835
   full:        0.615      -0.603      -2.555       1.591      -1.351       1.940

           -------------------------------------------------
          |                Geometry Summary                 |
           -------------------------------------------------

      molecular mass/u    :       96.1306119
   center of mass at/Å    :       -0.0499466      -0.0449429       0.1814525
  moments of inertia/u·Å² :        0.8324481E+02   0.2328266E+03   0.2951321E+03
rotational constants/cm⁻¹ :        0.2025067E+00   0.7240423E-01   0.5711894E-01

 * 13 selected distances

     #   Z          #   Z                                           value/Å
     1   6 C        2   7 N                                       1.4575607 (max)
     2   7 N        3   6 C                                       1.4342025
     3   6 C        4   6 C                                       1.3986585
     4   6 C        5   6 C                                       1.3859961
     5   6 C        7   7 N                                       1.3584603
     1   6 C        8   1 H                                       1.1078917
     1   6 C        9   1 H                                       1.0952713
     1   6 C       10   1 H                                       1.0920666
     3   6 C       11   1 H                                       1.0795083 (min)
     4   6 C       12   1 H                                       1.0831318
     6   6 C       13   1 H                                       1.0986059
     6   6 C       14   1 H                                       1.0899231
     6   6 C       15   1 H                                       1.0943471

 * 3 distinct bonds (by element types)

   Z      Z             #   av. dist./Å        max./Å        min./Å
   1 H    6 C           8     1.0925932     1.1078917     1.0795083
   6 C    6 C           2     1.3923273     1.3986585     1.3859961
   6 C    7 N           3     1.4167412     1.4575607     1.3584603


optimized geometry written to: xtbopt.xyz


           -------------------------------------------------
          | TOTAL ENERGY              -20.721063578206 Eh   |
          | GRADIENT NORM               0.000820930617 Eh/α |
          | HOMO-LUMO GAP               2.223816770746 eV   |
           -------------------------------------------------

------------------------------------------------------------------------
 * finished run on 2026/01/15 at 10:27:37.815     
------------------------------------------------------------------------
 total:
 * wall-time:     0 d,  0 h,  0 min, 21.141 sec
 *  cpu-time:     0 d,  0 h,  1 min, 22.841 sec
 * ratio c/w:     3.918 speedup
 SCF:
 * wall-time:     0 d,  0 h,  0 min,  2.184 sec
 *  cpu-time:     0 d,  0 h,  0 min,  7.001 sec
 * ratio c/w:     3.205 speedup
 ANC optimizer:
 * wall-time:     0 d,  0 h,  0 min, 18.773 sec
 *  cpu-time:     0 d,  0 h,  1 min, 15.281 sec
 * ratio c/w:     4.010 speedup

