      -----------------------------------------------------------      
     |                   =====================                   |     
     |                           x T B                           |     
     |                   =====================                   |     
     |                         S. Grimme                         |     
     |          Mulliken Center for Theoretical Chemistry        |     
     |                    University of Bonn                     |     
      -----------------------------------------------------------      

   * xtb version 6.7.1 (edcfbbe) compiled by 'conda@c0858423619e' on 2025-09-04

   xtb is free software: you can redistribute it and/or modify it under
   the terms of the GNU Lesser General Public License as published by
   the Free Software Foundation, either version 3 of the License, or
   (at your option) any later version.
   
   xtb is distributed in the hope that it will be useful,
   but WITHOUT ANY WARRANTY; without even the implied warranty of
   MERCHANTABILITY or FITNESS FOR A PARTICULAR PURPOSE.  See the
   GNU Lesser General Public License for more details.
   
   Cite this work as:
   * C. Bannwarth, E. Caldeweyher, S. Ehlert, A. Hansen, P. Pracht,
     J. Seibert, S. Spicher, S. Grimme, WIREs Comput. Mol. Sci., 2020, 11,
     e01493. DOI: 10.1002/wcms.1493
   
   for GFN2-xTB:
   * C. Bannwarth, S. Ehlert and S. Grimme., J. Chem. Theory Comput., 2019,
     15, 1652-1671. DOI: 10.1021/acs.jctc.8b01176
   for GFN1-xTB:
   * S. Grimme, C. Bannwarth, P. Shushkov, J. Chem. Theory Comput., 2017,
     13, 1989-2009. DOI: 10.1021/acs.jctc.7b00118
   for GFN0-xTB:
   * P. Pracht, E. Caldeweyher, S. Ehlert, S. Grimme, ChemRxiv, 2019, preprint.
     DOI: 10.26434/chemrxiv.8326202.v1
   for GFN-FF:
   * S. Spicher and S. Grimme, Angew. Chem. Int. Ed., 2020, 59, 15665-15673.
     DOI: 10.1002/anie.202004239
   
   for ALPB and GBSA implicit solvation:
   * S. Ehlert, M. Stahn, S. Spicher, S. Grimme, J. Chem. Theory Comput.,
     2021, 17, 4250-4261. DOI: 10.1021/acs.jctc.1c00471
   
   for ddCOSMO and CPCM-X implicit solvation:
   * M. Stahn, S. Ehlert, S. Grimme, J. Phys. Chem. A,
     2023, XX, XXXX-XXXX. DOI: 10.1021/acs.jpca.3c04382
   
   for DFT-D4:
   * E. Caldeweyher, C. Bannwarth and S. Grimme, J. Chem. Phys., 2017,
     147, 034112. DOI: 10.1063/1.4993215
   * E. Caldeweyher, S. Ehlert, A. Hansen, H. Neugebauer, S. Spicher,
     C. Bannwarth and S. Grimme, J. Chem. Phys., 2019, 150, 154122.
     DOI: 10.1063/1.5090222
   * E. Caldeweyher, J.-M. Mewes, S. Ehlert and S. Grimme, Phys. Chem. Chem. Phys.
     2020, 22, 8499-8512. DOI: 10.1039/D0CP00502A
   
   for sTDA-xTB:
   * S. Grimme and C. Bannwarth, J. Chem. Phys., 2016, 145, 054103.
     DOI: 10.1063/1.4959605
   
   in the mass-spec context:
   * V. Asgeirsson, C. Bauer and S. Grimme, Chem. Sci., 2017, 8, 4879.
     DOI: 10.1039/c7sc00601b
   * J. Koopman and S. Grimme, ACS Omega 2019, 4, 12, 15120-15133.
     DOI: 10.1021/acsomega.9b02011
   
   for metadynamics refer to:
   * S. Grimme, J. Chem. Theory Comput., 2019, 155, 2847-2862
     DOI: 10.1021/acs.jctc.9b00143
   
   for SPH calculations refer to:
   * S. Spicher and S. Grimme, J. Chem. Theory Comput., 2021, 17, 1701-1714
     DOI: 10.1021/acs.jctc.0c01306
   
   for ONIOM refer to:
   * C. Plett, A. Katbashev, S. Ehlert, S. Grimme, M. Bursch,
     Phys. Chem. Chem. Phys., 2023, 25, 17860-17868. DOI: 10.1039/D3CP02178E
   
   for DIPRO refer to:
   * J. Kohn, N. Gildemeister, S. Grimme, D. Fazzi, A. Hansen,
     J. Chem. Phys., 2023, just accepted.
   
   for PTB refer to:
   * S. Grimme, M. Mueller, A. Hansen, J. Chem. Phys., 2023, 158, 124111.
     DOI: 10.1063/5.0137838
   
   with help from (in alphabetical order)
   P. Atkinson, C. Bannwarth, F. Bohle, G. Brandenburg, E. Caldeweyher
   M. Checinski, S. Dohm, S. Ehlert, S. Ehrlich, I. Gerasimov, C. Hölzer
   A. Katbashev, J. Kohn, J. Koopman, C. Lavigne, S. Lehtola, F. März, M. Müller,
   F. Musil, H. Neugebauer, J. Pisarek, C. Plett, P. Pracht, F. Pultar,
   J. Seibert, P. Shushkov, S. Spicher, M. Stahn, M. Steiner, T. Strunk,
   J. Stückrath, T. Rose, and J. Unsleber
   
 * started run on 2026/01/15 at 10:41:34.351     
   ID    Z sym.   atoms
    1    6 C      1, 3-6
    2    7 N      2, 7
    3    1 H      8-15

           -------------------------------------------------
          |                Calculation Setup                |
           -------------------------------------------------

          program call               : /h/28/cicsy/miniforge3/envs/elagente/bin/xtb product_1-3-dimethylpyrazole.xyz --opt --gfn 2 -P 4 --chrg 0
          coordinate file            : product_1-3-dimethylpyrazole.xyz
          omp threads                :                     4


           -------------------------------------------------
          |                 G F N 2 - x T B                 |
           -------------------------------------------------

        Reference                      10.1021/acs.jctc.8b01176
      * Hamiltonian:
        H0-scaling (s, p, d)           1.850000    2.230000    2.230000
        zeta-weighting                 0.500000
      * Dispersion:
        s8                             2.700000
        a1                             0.520000
        a2                             5.000000
        s9                             5.000000
      * Repulsion:
        kExp                           1.500000    1.000000
        rExp                           1.000000
      * Coulomb:
        alpha                          2.000000
        third order                    shell-resolved
        anisotropic                    true
        a3                             3.000000
        a5                             4.000000
        cn-shift                       1.200000
        cn-exp                         4.000000
        max-rad                        5.000000


          ...................................................
          :                      SETUP                      :
          :.................................................:
          :  # basis functions                  36          :
          :  # atomic orbitals                  36          :
          :  # shells                           22          :
          :  # electrons                        38          :
          :  max. iterations                   250          :
          :  Hamiltonian                  GFN2-xTB          :
          :  restarted?                      false          :
          :  GBSA solvation                  false          :
          :  PC potential                    false          :
          :  electronic temp.          300.0000000     K    :
          :  accuracy                    1.0000000          :
          :  -> integral cutoff          0.2500000E+02      :
          :  -> integral neglect         0.1000000E-07      :
          :  -> SCF convergence          0.1000000E-05 Eh   :
          :  -> wf. convergence          0.1000000E-03 e    :
          :  Broyden damping             0.4000000          :
          :  net charge                          0          :
          :  unpaired electrons                  0          :
          ...................................................

 iter      E             dE          RMSdq      gap      omega  full diag
   1    -20.8471446 -0.208471E+02  0.315E+00    5.18       0.0  T
   2    -20.8941310 -0.469863E-01  0.239E+00    4.80       1.0  T
   3    -20.9019010 -0.777000E-02  0.129E+00    4.88       1.0  T
   4    -20.9018941  0.688254E-05  0.396E-01    4.76       1.0  T
   5    -20.9030115 -0.111746E-02  0.919E-02    4.79       1.0  T
   6    -20.9030289 -0.173340E-04  0.401E-02    4.77       1.0  T
   7    -20.9030363 -0.740479E-05  0.209E-02    4.78       1.2  T
   8    -20.9030369 -0.643767E-06  0.430E-03    4.78       6.0  T
   9    -20.9030371 -0.141083E-06  0.150E-03    4.78      17.2  T
  10    -20.9030371 -0.789013E-08  0.635E-04    4.78      40.6  T
  11    -20.9030371 -0.722761E-09  0.205E-04    4.78     125.7  T

   *** convergence criteria satisfied after 11 iterations ***

         #    Occupation            Energy/Eh            Energy/eV
      -------------------------------------------------------------
         1        2.0000           -0.6805938             -18.5199
       ...           ...                  ...                  ...
        13        2.0000           -0.4671180             -12.7109
        14        2.0000           -0.4658818             -12.6773
        15        2.0000           -0.4514060             -12.2834
        16        2.0000           -0.4366705             -11.8824
        17        2.0000           -0.3889856             -10.5848
        18        2.0000           -0.3783921             -10.2966
        19        2.0000           -0.3764944             -10.2449 (HOMO)
        20                         -0.2008789              -5.4662 (LUMO)
        21                         -0.1439463              -3.9170
        22                         -0.0071539              -0.1947
        23                          0.0937808               2.5519
        24                          0.1083593               2.9486
       ...                                ...                  ...
        36                          0.6734234              18.3248
      -------------------------------------------------------------
                  HL-Gap            0.1756155 Eh            4.7787 eV
             Fermi-level           -0.2886866 Eh           -7.8556 eV

 SCC (total)                   0 d,  0 h,  0 min,  1.689 sec
 SCC setup                      ...        0 min,  0.002 sec (  0.100%)
 Dispersion                     ...        0 min,  0.000 sec (  0.004%)
 classical contributions        ...        0 min,  0.002 sec (  0.115%)
 integral evaluation            ...        0 min,  0.001 sec (  0.067%)
 iterations                     ...        0 min,  1.483 sec ( 87.838%)
 molecular gradient             ...        0 min,  0.196 sec ( 11.602%)
 printout                       ...        0 min,  0.005 sec (  0.268%)

         :::::::::::::::::::::::::::::::::::::::::::::::::::::
         ::                     SUMMARY                     ::
         :::::::::::::::::::::::::::::::::::::::::::::::::::::
         :: total energy             -20.618350592469 Eh    ::
         :: gradient norm              0.053963438899 Eh/a0 ::
         :: HOMO-LUMO gap              4.778741946016 eV    ::
         ::.................................................::
         :: SCC energy               -20.903030511083 Eh    ::
         :: -> isotropic ES            0.011432341330 Eh    ::
         :: -> anisotropic ES          0.003688110280 Eh    ::
         :: -> anisotropic XC          0.018003434616 Eh    ::
         :: -> dispersion             -0.009636651746 Eh    ::
         :: repulsion energy           0.284679918614 Eh    ::
         :: add. restraining           0.000000000000 Eh    ::
         :: total charge              -0.000000000000 e     ::
         :::::::::::::::::::::::::::::::::::::::::::::::::::::

      ----------------------------------------------------------- 
     |                   =====================                   |
     |                        A N C O P T                        |
     |                   =====================                   |
     |               Approximate Normal Coordinate               |
     |                Rational Function Optimizer                |
      ----------------------------------------------------------- 
      ----------------------------------------------------------- 
     |                   =====================                   |
     |                        A N C O P T                        |
     |                   =====================                   |
     |               Approximate Normal Coordinate               |
     |                Rational Function Optimizer                |
      ----------------------------------------------------------- 

          ...................................................
          :                      SETUP                      :
          :.................................................:
          :   optimization level            normal          :
          :   max. optcycles                   200          :
          :   ANC micro-cycles                  20          :
          :   degrees of freedom                39          :
          :.................................................:
          :   RF solver                   davidson          :
          :   write xtbopt.log                true          :
          :   linear?                        false          :
          :   energy convergence         0.5000000E-05 Eh   :
          :   grad. convergence          0.1000000E-02 Eh/α :
          :   maxmium RF displ.          1.0000000          :
          :   Hlow (freq-cutoff)         0.1000000E-01      :
          :   Hmax (freq-cutoff)         5.0000000          :
          :   S6 in model hess.         20.0000000          :
          ...................................................

generating ANC from exact Hessian ...
Using Lindh-Hessian (1995)
 Shifting diagonal of input Hessian by    4.1238786077631108E-003
 Lowest  eigenvalues of input Hessian
    0.000000    0.000000    0.000000    0.000000    0.000000    0.000000
    0.010000    0.011939    0.017520    0.018196    0.018437    0.035128
    0.043382    0.046480    0.062079    0.071172    0.076778    0.091030
 Highest eigenvalues
    1.159217    1.572858    1.835462    1.853548    2.050583    2.080835


........................................................................
.............................. CYCLE    1 ..............................
........................................................................

 iter      E             dE          RMSdq      gap      omega  full diag
   1    -20.9030371 -0.209030E+02  0.511E-05    4.78       0.0  T
   2    -20.9030371 -0.728306E-11  0.247E-05    4.78    1046.0  T
   3    -20.9030371 -0.344613E-12  0.130E-05    4.78    1993.5  T
     SCC iter.                  ...        0 min,  0.471 sec
     gradient                   ...        0 min,  0.156 sec
 * total energy  :   -20.6183506 Eh     change       -0.2294094E-09 Eh
   gradient norm :     0.0539610 Eh/α   predicted     0.0000000E+00 (-100.00%)
   displ. norm   :     0.2342212 α      lambda       -0.6628384E-02
   maximum displ.:     0.1284991 α      in ANC's #4, #9, #22, ...

........................................................................
.............................. CYCLE    2 ..............................
........................................................................

 iter      E             dE          RMSdq      gap      omega  full diag
   1    -20.9225989 -0.209226E+02  0.249E-01    4.85       0.0  T
   2    -20.9226569 -0.579733E-04  0.140E-01    4.86       1.0  T
   3    -20.9226527  0.423231E-05  0.470E-02    4.86       1.0  T
   4    -20.9226638 -0.111648E-04  0.129E-02    4.86       2.0  T
   5    -20.9226647 -0.836956E-06  0.542E-03    4.86       4.8  T
   6    -20.9226647  0.296484E-08  0.195E-03    4.86      13.2  T
   7    -20.9226647 -0.267424E-07  0.531E-04    4.86      48.6  T
   8    -20.9226647 -0.698826E-09  0.156E-04    4.86     165.3  T
     SCC iter.                  ...        0 min,  1.113 sec
     gradient                   ...        0 min,  0.149 sec
 * total energy  :   -20.6225320 Eh     change       -0.4181391E-02 Eh
   gradient norm :     0.0180976 Eh/α   predicted    -0.3496007E-02 ( -16.39%)
   displ. norm   :     0.1778975 α      lambda       -0.1059619E-02
   maximum displ.:     0.1289095 α      in ANC's #4, #1, #5, ...

........................................................................
.............................. CYCLE    3 ..............................
........................................................................

 iter      E             dE          RMSdq      gap      omega  full diag
   1    -20.9288442 -0.209288E+02  0.113E-01    4.88       0.0  T
   2    -20.9288533 -0.909197E-05  0.653E-02    4.89       1.0  T
   3    -20.9288516  0.168034E-05  0.205E-02    4.89       1.3  T
   4    -20.9288546 -0.295804E-05  0.532E-03    4.89       4.9  T
   5    -20.9288548 -0.150057E-06  0.200E-03    4.89      12.9  T
   6    -20.9288548  0.516017E-09  0.729E-04    4.89      35.4  T
   7    -20.9288548 -0.412350E-08  0.159E-04    4.89     162.4  T
     SCC iter.                  ...        0 min,  1.156 sec
     gradient                   ...        0 min,  0.178 sec
 * total energy  :   -20.6231797 Eh     change       -0.6477238E-03 Eh
   gradient norm :     0.0068236 Eh/α   predicted    -0.5465751E-03 ( -15.62%)
   displ. norm   :     0.1150363 α      lambda       -0.2261535E-03
   maximum displ.:     0.0883416 α      in ANC's #4, #1, #3, ...

........................................................................
.............................. CYCLE    4 ..............................
........................................................................

 iter      E             dE          RMSdq      gap      omega  full diag
   1    -20.9287331 -0.209287E+02  0.661E-02    4.89       0.0  T
   2    -20.9287341 -0.107116E-05  0.371E-02    4.89       1.0  T
   3    -20.9287340  0.142122E-06  0.739E-03    4.89       3.5  T
   4    -20.9287343 -0.272674E-06  0.182E-03    4.89      14.2  T
   5    -20.9287343 -0.242494E-07  0.706E-04    4.89      36.6  T
   6    -20.9287343 -0.266176E-09  0.228E-04    4.89     113.4  T
     SCC iter.                  ...        0 min,  0.866 sec
     gradient                   ...        0 min,  0.280 sec
 * total energy  :   -20.6233309 Eh     change       -0.1512150E-03 Eh
   gradient norm :     0.0043196 Eh/α   predicted    -0.1145717E-03 ( -24.23%)
   displ. norm   :     0.0745005 α      lambda       -0.6742516E-04
   maximum displ.:     0.0453014 α      in ANC's #4, #1, #3, ...

........................................................................
.............................. CYCLE    5 ..............................
........................................................................

 iter      E             dE          RMSdq      gap      omega  full diag
   1    -20.9281193 -0.209281E+02  0.403E-02    4.89       0.0  T
   2    -20.9281200 -0.735462E-06  0.225E-02    4.89       1.1  T
   3    -20.9281198  0.222571E-06  0.749E-03    4.89       3.4  T
   4    -20.9281202 -0.389640E-06  0.928E-04    4.89      27.8  T
   5    -20.9281202 -0.147122E-08  0.449E-04    4.89      57.5  T
     SCC iter.                  ...        0 min,  0.696 sec
     gradient                   ...        0 min,  0.159 sec
 * total energy  :   -20.6233709 Eh     change       -0.3993646E-04 Eh
   gradient norm :     0.0019485 Eh/α   predicted    -0.3390071E-04 ( -15.11%)
   displ. norm   :     0.0475569 α      lambda       -0.1214639E-04
   maximum displ.:     0.0317497 α      in ANC's #1, #3, #2, ...

........................................................................
.............................. CYCLE    6 ..............................
........................................................................

 iter      E             dE          RMSdq      gap      omega  full diag
   1    -20.9280230 -0.209280E+02  0.183E-02    4.89       0.0  T
   2    -20.9280233 -0.310896E-06  0.108E-02    4.89       2.4  T
   3    -20.9280233  0.462808E-07  0.445E-03    4.89       5.8  T
   4    -20.9280234 -0.121629E-06  0.470E-04    4.89      55.0  T
   5    -20.9280234 -0.271811E-09  0.230E-04    4.89     112.0  T
     SCC iter.                  ...        0 min,  0.651 sec
     gradient                   ...        0 min,  0.214 sec
 * total energy  :   -20.6233835 Eh     change       -0.1259207E-04 Eh
   gradient norm :     0.0012279 Eh/α   predicted    -0.6079818E-05 ( -51.72%)
   displ. norm   :     0.0761108 α      lambda       -0.1458042E-04
   maximum displ.:     0.0510836 α      in ANC's #1, #3, #5, ...

........................................................................
.............................. CYCLE    7 ..............................
........................................................................

 iter      E             dE          RMSdq      gap      omega  full diag
   1    -20.9279896 -0.209280E+02  0.238E-02    4.89       0.0  T
   2    -20.9279898 -0.155926E-06  0.143E-02    4.89       1.8  T
   3    -20.9279897  0.723279E-07  0.305E-03    4.89       8.5  T
   4    -20.9279898 -0.106803E-06  0.530E-04    4.89      48.7  T
   5    -20.9279898 -0.625064E-09  0.253E-04    4.89     102.1  T
     SCC iter.                  ...        0 min,  1.537 sec
     gradient                   ...        0 min,  0.128 sec
 * total energy  :   -20.6234021 Eh     change       -0.1868796E-04 Eh
   gradient norm :     0.0025073 Eh/α   predicted    -0.7308761E-05 ( -60.89%)
   displ. norm   :     0.1406468 α      lambda       -0.3688740E-04
   maximum displ.:     0.0942411 α      in ANC's #1, #3, #5, ...

........................................................................
.............................. CYCLE    8 ..............................
........................................................................

 iter      E             dE          RMSdq      gap      omega  full diag
   1    -20.9276942 -0.209277E+02  0.430E-02    4.89       0.0  T
   2    -20.9276944 -0.167830E-06  0.256E-02    4.89       1.0  T
   3    -20.9276944 -0.656565E-08  0.219E-03    4.89      11.8  T
   4    -20.9276944 -0.441934E-07  0.916E-04    4.89      28.2  T
   5    -20.9276944 -0.134026E-08  0.341E-04    4.89      75.8  T
     SCC iter.                  ...        0 min,  0.308 sec
     gradient                   ...        0 min,  0.122 sec
 * total energy  :   -20.6234341 Eh     change       -0.3197706E-04 Eh
   gradient norm :     0.0038016 Eh/α   predicted    -0.1880861E-04 ( -41.18%)
   displ. norm   :     0.2561971 α      lambda       -0.6183795E-04
   maximum displ.:     0.1741980 α      in ANC's #1, #3, #5, ...

........................................................................
.............................. CYCLE    9 ..............................
........................................................................

 iter      E             dE          RMSdq      gap      omega  full diag
   1    -20.9264213 -0.209264E+02  0.783E-02    4.89       0.0  T
   2    -20.9264219 -0.597944E-06  0.465E-02    4.89       1.0  T
   3    -20.9264220 -0.117284E-06  0.313E-03    4.89       8.3  T
   4    -20.9264220 -0.338571E-07  0.166E-03    4.89      15.6  T
   5    -20.9264220 -0.605478E-08  0.801E-04    4.89      32.2  T
   6    -20.9264220 -0.292389E-08  0.128E-04    4.89     201.8  T
     SCC iter.                  ...        0 min,  0.745 sec
     gradient                   ...        0 min,  0.191 sec
 * total energy  :   -20.6234724 Eh     change       -0.3823739E-04 Eh
   gradient norm :     0.0060888 Eh/α   predicted    -0.3294861E-04 ( -13.83%)
   displ. norm   :     0.1042816 α      lambda       -0.4465220E-04
   maximum displ.:     0.0716149 α      in ANC's #1, #3, #5, ...

........................................................................
.............................. CYCLE   10 ..............................
........................................................................

 iter      E             dE          RMSdq      gap      omega  full diag
   1    -20.9269099 -0.209269E+02  0.323E-02    4.89       0.0  T
   2    -20.9269101 -0.166133E-06  0.191E-02    4.89       1.4  T
   3    -20.9269101  0.142440E-07  0.243E-03    4.89      10.6  T
   4    -20.9269101 -0.497318E-07  0.757E-04    4.89      34.1  T
   5    -20.9269102 -0.144449E-08  0.377E-04    4.89      68.5  T
     SCC iter.                  ...        0 min,  0.398 sec
     gradient                   ...        0 min,  0.261 sec
 * total energy  :   -20.6235096 Eh     change       -0.3723365E-04 Eh
   gradient norm :     0.0049083 Eh/α   predicted    -0.2256854E-04 ( -39.39%)
   displ. norm   :     0.2381346 α      lambda       -0.9041103E-04
   maximum displ.:     0.1746521 α      in ANC's #1, #3, #5, ...

........................................................................
.............................. CYCLE   11 ..............................
........................................................................

 iter      E             dE          RMSdq      gap      omega  full diag
   1    -20.9274204 -0.209274E+02  0.698E-02    4.89       0.0  T
   2    -20.9274212 -0.779817E-06  0.415E-02    4.89       1.0  T
   3    -20.9274210  0.228060E-06  0.628E-03    4.89       4.1  T
   4    -20.9274214 -0.398162E-06  0.153E-03    4.89      16.9  T
   5    -20.9274214 -0.680515E-08  0.775E-04    4.89      33.3  T
   6    -20.9274214 -0.608242E-09  0.245E-04    4.89     105.5  T
     SCC iter.                  ...        0 min,  0.776 sec
     gradient                   ...        0 min,  0.140 sec
 * total energy  :   -20.6235747 Eh     change       -0.6515431E-04 Eh
   gradient norm :     0.0025162 Eh/α   predicted    -0.4776872E-04 ( -26.68%)
   displ. norm   :     0.1600879 α      lambda       -0.5388181E-04
   maximum displ.:     0.1206931 α      in ANC's #1, #3, #4, ...

........................................................................
.............................. CYCLE   12 ..............................
........................................................................

 iter      E             dE          RMSdq      gap      omega  full diag
   1    -20.9285438 -0.209285E+02  0.478E-02    4.90       0.0  T
   2    -20.9285445 -0.672199E-06  0.283E-02    4.90       1.0  T
   3    -20.9285443  0.107360E-06  0.517E-03    4.90       5.0  T
   4    -20.9285445 -0.192683E-06  0.123E-03    4.90      21.0  T
   5    -20.9285446 -0.816347E-08  0.600E-04    4.90      43.1  T
   6    -20.9285446 -0.174328E-09  0.201E-04    4.90     128.5  T
     SCC iter.                  ...        0 min,  0.875 sec
     gradient                   ...        0 min,  0.201 sec
 * total energy  :   -20.6236085 Eh     change       -0.3376995E-04 Eh
   gradient norm :     0.0021128 Eh/α   predicted    -0.2763061E-04 ( -18.18%)
   displ. norm   :     0.5195089 α      lambda       -0.7771284E-04
   maximum displ.:     0.3825128 α      in ANC's #1, #3, #5, ...

........................................................................
.............................. CYCLE   13 ..............................
........................................................................

 iter      E             dE          RMSdq      gap      omega  full diag
   1    -20.9204024 -0.209204E+02  0.163E-01    4.89       0.0  T
   2    -20.9204131 -0.106570E-04  0.949E-02    4.89       1.0  T
   3    -20.9204134 -0.328394E-06  0.160E-02    4.89       1.6  T
   4    -20.9204141 -0.670398E-06  0.563E-03    4.89       4.6  T
   5    -20.9204143 -0.179576E-06  0.267E-03    4.89       9.7  T
   6    -20.9204143 -0.138260E-07  0.735E-04    4.89      35.1  T
   7    -20.9204143 -0.138340E-08  0.266E-04    4.89      97.0  T
     SCC iter.                  ...        0 min,  1.090 sec
     gradient                   ...        0 min,  0.153 sec
 * total energy  :   -20.6232956 Eh     change        0.3128775E-03 Eh
   gradient norm :     0.0164209 Eh/α   predicted    -0.4934284E-04 (-115.77%)
   displ. norm   :     0.3281404 α      lambda       -0.8459971E-03
   maximum displ.:     0.2401653 α      in ANC's #1, #3, #5, ...

........................................................................
.............................. CYCLE   14 ..............................
........................................................................

 iter      E             dE          RMSdq      gap      omega  full diag
   1    -20.9286114 -0.209286E+02  0.117E-01    4.90       0.0  T
   2    -20.9286204 -0.892365E-05  0.671E-02    4.90       1.0  T
   3    -20.9286206 -0.278122E-06  0.152E-02    4.90       1.7  T
   4    -20.9286210 -0.382896E-06  0.479E-03    4.90       5.4  T
   5    -20.9286212 -0.139639E-06  0.216E-03    4.90      11.9  T
   6    -20.9286212 -0.963748E-08  0.673E-04    4.90      38.3  T
   7    -20.9286212 -0.854399E-09  0.248E-04    4.90     104.2  T
     SCC iter.                  ...        0 min,  1.090 sec
     gradient                   ...        0 min,  0.172 sec
 * total energy  :   -20.6236323 Eh     change       -0.3366384E-03 Eh
   gradient norm :     0.0028313 Eh/α   predicted    -0.4685475E-03 (  39.18%)
   displ. norm   :     0.0253588 α      lambda       -0.8368685E-05
   maximum displ.:     0.0191626 α      in ANC's #1, #3, #5, ...

........................................................................
.............................. CYCLE   15 ..............................
........................................................................

 iter      E             dE          RMSdq      gap      omega  full diag
   1    -20.9283914 -0.209284E+02  0.838E-03    4.90       0.0  T
   2    -20.9283915 -0.506409E-07  0.502E-03    4.90       5.1  T
   3    -20.9283915  0.851878E-08  0.152E-03    4.90      17.0  T
   4    -20.9283915 -0.156728E-07  0.272E-04    4.90      94.9  T
   5    -20.9283915 -0.339451E-09  0.127E-04    4.90     203.8  T
     SCC iter.                  ...        0 min,  0.602 sec
     gradient                   ...        0 min,  0.233 sec
 * total energy  :   -20.6236392 Eh     change       -0.6891129E-05 Eh
   gradient norm :     0.0018843 Eh/α   predicted    -0.4185479E-05 ( -39.26%)
   displ. norm   :     0.1912413 α      lambda       -0.2386488E-04
   maximum displ.:     0.1465543 α      in ANC's #1, #3, #5, ...

........................................................................
.............................. CYCLE   16 ..............................
........................................................................

 iter      E             dE          RMSdq      gap      omega  full diag
   1    -20.9270467 -0.209270E+02  0.556E-02    4.89       0.0  T
   2    -20.9270478 -0.106315E-05  0.333E-02    4.89       1.0  T
   3    -20.9270474  0.336652E-06  0.731E-03    4.89       3.5  T
   4    -20.9270479 -0.515237E-06  0.135E-03    4.89      19.1  T
   5    -20.9270479 -0.613965E-08  0.688E-04    4.89      37.5  T
   6    -20.9270479 -0.834888E-11  0.197E-04    4.89     130.9  T
     SCC iter.                  ...        0 min,  0.768 sec
     gradient                   ...        0 min,  0.158 sec
 * total energy  :   -20.6236479 Eh     change       -0.8748505E-05 Eh
   gradient norm :     0.0035618 Eh/α   predicted    -0.1212682E-04 (  38.62%)
   displ. norm   :     0.0099798 α      lambda       -0.1517649E-04
   maximum displ.:     0.0045082 α      in ANC's #5, #2, #1, ...

........................................................................
.............................. CYCLE   17 ..............................
........................................................................

 iter      E             dE          RMSdq      gap      omega  full diag
   1    -20.9278141 -0.209278E+02  0.935E-03    4.90       0.0  T
   2    -20.9278142 -0.121317E-06  0.527E-03    4.90       4.9  T
   3    -20.9278142 -0.801347E-09  0.197E-03    4.90      13.1  T
   4    -20.9278142 -0.864614E-08  0.485E-04    4.90      53.3  T
   5    -20.9278142 -0.126817E-08  0.219E-04    4.90     118.0  T
     SCC iter.                  ...        0 min,  0.596 sec
     gradient                   ...        0 min,  0.198 sec
 * total energy  :   -20.6236578 Eh     change       -0.9920707E-05 Eh
   gradient norm :     0.0021169 Eh/α   predicted    -0.7589918E-05 ( -23.49%)
   displ. norm   :     0.0314629 α      lambda       -0.1146378E-04
   maximum displ.:     0.0212801 α      in ANC's #1, #3, #22, ...

........................................................................
.............................. CYCLE   18 ..............................
........................................................................

 iter      E             dE          RMSdq      gap      omega  full diag
   1    -20.9285273 -0.209285E+02  0.120E-02    4.90       0.0  T
   2    -20.9285275 -0.184847E-06  0.694E-03    4.90       3.7  T
   3    -20.9285275  0.803440E-08  0.273E-03    4.90       9.5  T
   4    -20.9285275 -0.281270E-07  0.560E-04    4.90      46.1  T
   5    -20.9285275 -0.177960E-08  0.241E-04    4.90     107.1  T
     SCC iter.                  ...        0 min,  0.988 sec
     gradient                   ...        0 min,  0.172 sec
 * total energy  :   -20.6236641 Eh     change       -0.6247320E-05 Eh
   gradient norm :     0.0004535 Eh/α   predicted    -0.5738065E-05 (  -8.15%)
   displ. norm   :     0.1476950 α      lambda       -0.8281617E-05
   maximum displ.:     0.1081623 α      in ANC's #1, #3, #5, ...

........................................................................
.............................. CYCLE   19 ..............................
........................................................................

 iter      E             dE          RMSdq      gap      omega  full diag
   1    -20.9283304 -0.209283E+02  0.415E-02    4.90       0.0  T
   2    -20.9283305 -0.127513E-06  0.248E-02    4.90       1.0  T
   3    -20.9283305  0.465318E-08  0.221E-03    4.90      11.7  T
   4    -20.9283306 -0.440188E-07  0.864E-04    4.90      29.9  T
   5    -20.9283306 -0.118674E-08  0.373E-04    4.90      69.3  T
     SCC iter.                  ...        0 min,  0.662 sec
     gradient                   ...        0 min,  0.228 sec
 * total energy  :   -20.6236725 Eh     change       -0.8431393E-05 Eh
   gradient norm :     0.0008485 Eh/α   predicted    -0.4180278E-05 ( -50.42%)
   displ. norm   :     0.1744939 α      lambda       -0.5993926E-05
   maximum displ.:     0.1268553 α      in ANC's #1, #3, #5, ...

........................................................................
.............................. CYCLE   20 ..............................
........................................................................

 iter      E             dE          RMSdq      gap      omega  full diag
   1    -20.9274891 -0.209275E+02  0.490E-02    4.90       0.0  T
   2    -20.9274893 -0.199865E-06  0.292E-02    4.90       1.0  T
   3    -20.9274893 -0.454014E-07  0.173E-03    4.90      14.9  T
   4    -20.9274893 -0.668906E-08  0.879E-04    4.90      29.4  T
   5    -20.9274893 -0.525556E-09  0.355E-04    4.90      72.7  T
     SCC iter.                  ...        0 min,  1.323 sec
     gradient                   ...        0 min,  0.207 sec
 * total energy  :   -20.6236725 Eh     change        0.3841468E-07 Eh
   gradient norm :     0.0021529 Eh/α   predicted    -0.3036891E-05 (*******%)
   displ. norm   :     0.0437374 α      lambda       -0.7876284E-05
   maximum displ.:     0.0337840 α      in ANC's #1, #3, #5, ...
 * RMSD in coord.:     0.4951885 α      energy gain  -0.5321880E-02 Eh

generating ANC from exact Hessian ...
Using Lindh-Hessian (1995)
 Shifting diagonal of input Hessian by    3.4490882258796643E-003
 Lowest  eigenvalues of input Hessian
    0.000000    0.000000    0.000000    0.000000    0.000000    0.000000
    0.010000    0.012222    0.017996    0.018333    0.019263    0.037204
    0.047297    0.051448    0.068099    0.079046    0.087323    0.093254
 Highest eigenvalues
    1.209400    1.622450    1.818378    1.903288    2.085850    2.093187


........................................................................
.............................. CYCLE   21 ..............................
........................................................................

 iter      E             dE          RMSdq      gap      omega  full diag
   1    -20.9281722 -0.209282E+02  0.132E-02    4.90       0.0  T
   2    -20.9281723 -0.619555E-07  0.771E-03    4.90       3.3  T
   3    -20.9281723  0.190770E-09  0.129E-03    4.90      20.0  T
   4    -20.9281723 -0.634111E-08  0.480E-04    4.90      53.8  T
   5    -20.9281723 -0.130903E-08  0.202E-04    4.90     128.1  T
     SCC iter.                  ...        0 min,  0.892 sec
     gradient                   ...        0 min,  0.157 sec
 * total energy  :   -20.6236771 Eh     change       -0.4600899E-05 Eh
   gradient norm :     0.0008229 Eh/α   predicted     0.0000000E+00 (-100.00%)
   displ. norm   :     0.0039001 α      lambda       -0.1187371E-05
   maximum displ.:     0.0025732 α      in ANC's #5, #22, #27, ...

   *** GEOMETRY OPTIMIZATION CONVERGED AFTER 21 ITERATIONS ***

------------------------------------------------------------------------
 total energy gain   :        -0.0053265 Eh       -3.3424 kcal/mol
 total RMSD          :         0.4951885 a0        0.2620 Å
 total power (kW/mol):        -0.6659369 (step)   -0.5717 (real)
------------------------------------------------------------------------

 ANCopt (total)                0 d,  0 h,  0 min, 24.463 sec
 optimizer setup                ...        0 min,  0.000 sec (  0.002%)
 model hessian                  ...        0 min,  0.003 sec (  0.013%)
 ANC generation                 ...        0 min,  0.001 sec (  0.003%)
 coordinate transformation      ...        0 min,  0.000 sec (  0.001%)
 single point calculation       ...        0 min, 24.099 sec ( 98.511%)
 optimization log               ...        0 min,  0.006 sec (  0.026%)
 hessian update                 ...        0 min,  0.337 sec (  1.378%)
 rational function              ...        0 min,  0.013 sec (  0.055%)

================
 final structure:
================
15
 xtb: 6.7.1 (edcfbbe)
C           -2.43690201220151        0.39247053597259       -0.01765449206537
N           -1.06895243160326       -0.03430480308070       -0.04960236293365
C           -0.59562879838941       -1.27356408689578       -0.28942998244585
C            0.77490943816252       -1.19859689674253       -0.21865145905982
C            1.04632702822973        0.15123464254511        0.07402936695836
C            2.37140354648439        0.79970647989542        0.26318092313695
N           -0.08333088889124        0.83219950967579        0.17095505781926
H           -2.91022976484070        0.25224362224330       -0.99257342990012
H           -2.99923666914932       -0.16717937792425        0.73354763164965
H           -2.44557048370223        1.45045018822337        0.23794422777639
H           -1.25077752014904       -2.09841735453343       -0.48757297125611
H            1.48265206046133       -1.99052402731706       -0.35511530095568
H            2.97294955511870        0.70556821911316       -0.64044259910882
H            2.22977348056249        1.85263703524384        0.48973871301292
H            2.91261445990745        0.32607631358110        1.08164767737179

 Bond Distances (Angstroems)
 ---------------------------
C1-N2=1.4333         C1-H8=1.0928         C1-H9=1.0926         C1-H10=1.0885        N2-C1=1.4333         N2-C3=1.3481         
N2-N7=1.3308         C3-N2=1.3481         C3-C4=1.3744         C3-H11=1.0719        C4-C3=1.3744         C4-C5=1.4076         
C4-H12=1.0708        C5-C4=1.4076         C5-C6=1.4873         C5-N7=1.3226         C6-C5=1.4873         C6-H13=1.0896        
C6-H14=1.0863        C6-H15=1.0896        N7-N2=1.3308         N7-C5=1.3226         H8-C1=1.0928         H9-C1=1.0926         
H10-C1=1.0885        H11-C3=1.0719        H12-C4=1.0708        H13-C6=1.0896        H14-C6=1.0863        H15-C6=1.0896        
 C  H  Rav=1.0852 sigma=0.0083  Rmin=1.0708  Rmax=1.0928     8
 C  C  Rav=1.4231 sigma=0.0474  Rmin=1.3744  Rmax=1.4873     3
 N  C  Rav=1.3680 sigma=0.0474  Rmin=1.3226  Rmax=1.4333     3
 N  N  Rav=1.3308 sigma=0.0000  Rmin=1.3308  Rmax=1.3308     1

 selected bond angles (degree)
 --------------------
H8-C1-N2=110.81                H9-C1-N2=110.73                H9-C1-H8=108.95                H10-C1-N2=107.59               
H10-C1-H8=109.32               H10-C1-H9=109.41               C3-N2-C1=127.79                N7-N2-C1=120.62                
N7-N2-C3=111.59                C4-C3-N2=106.91                H11-C3-N2=121.72               H11-C3-C4=131.38               
C5-C4-C3=104.79                H12-C4-C3=127.75               H12-C4-C5=127.46               C6-C5-C4=128.05                
N7-C5-C4=110.14                N7-C5-C6=121.81                H13-C6-C5=110.41               H14-C6-C5=109.45               
H14-C6-H13=109.19              H15-C6-C5=110.40               H15-C6-H13=108.13              H15-C6-H14=109.23              
C5-N7-N2=106.57                

 selected dihedral angles (degree)
 ---------------------------------
C3-N2-C1-H8=297.61            C3-N2-C1-H9= 58.63            C3-N2-C1-H10=178.15           N7-N2-C1-H8=117.49            
N7-N2-C1-H9=238.51            N7-N2-C1-H10=358.03           C4-C3-N2-C1=179.89            C4-C3-N2-N7=  0.00            
H11-C3-N2-C1=359.86           H11-C3-N2-N7=179.97           C5-C4-C3-N2=  0.00            C5-C4-C3-H11=180.03           
H12-C4-C3-N2=179.97           H12-C4-C3-H11=  0.00          C6-C5-C4-C3=179.98            C6-C5-C4-H12=  0.00           
N7-C5-C4-C3=  0.00            N7-C5-C4-H12=180.03           H13-C6-C5-C4= 60.47           H13-C6-C5-N7=240.43           
H14-C6-C5-C4=180.69           H14-C6-C5-N7=  0.65           H15-C6-C5-C4=300.96           H15-C6-C5-N7=120.92           
C5-N7-N2-C1=180.11            C5-N7-N2-C3=  0.00            N2-N7-C5-C4=  0.00            N2-N7-C5-C6=180.02            
           -------------------------------------------------
          |                Final Singlepoint                |
           -------------------------------------------------

          ...................................................
          :                      SETUP                      :
          :.................................................:
          :  # basis functions                  36          :
          :  # atomic orbitals                  36          :
          :  # shells                           22          :
          :  # electrons                        38          :
          :  max. iterations                   250          :
          :  Hamiltonian                  GFN2-xTB          :
          :  restarted?                      false          :
          :  GBSA solvation                  false          :
          :  PC potential                    false          :
          :  electronic temp.          300.0000000     K    :
          :  accuracy                    1.0000000          :
          :  -> integral cutoff          0.2500000E+02      :
          :  -> integral neglect         0.1000000E-07      :
          :  -> SCF convergence          0.1000000E-05 Eh   :
          :  -> wf. convergence          0.1000000E-03 e    :
          :  Broyden damping             0.4000000          :
          :  net charge                          0          :
          :  unpaired electrons                  0          :
          ...................................................

 iter      E             dE          RMSdq      gap      omega  full diag
   1    -20.9281723 -0.209282E+02  0.635E-05    4.90       0.0  T
   2    -20.9281723 -0.130811E-10  0.345E-05    4.90     747.4  T
   3    -20.9281723 -0.317613E-11  0.198E-05    4.90    1301.8  T

   *** convergence criteria satisfied after 3 iterations ***

         #    Occupation            Energy/Eh            Energy/eV
      -------------------------------------------------------------
         1        2.0000           -0.6801861             -18.5088
       ...           ...                  ...                  ...
        13        2.0000           -0.4673241             -12.7165
        14        2.0000           -0.4652154             -12.6592
        15        2.0000           -0.4499028             -12.2425
        16        2.0000           -0.4408192             -11.9953
        17        2.0000           -0.3892884             -10.5931
        18        2.0000           -0.3793212             -10.3219
        19        2.0000           -0.3782766             -10.2934 (HOMO)
        20                         -0.1982841              -5.3956 (LUMO)
        21                         -0.1456261              -3.9627
        22                          0.0142712               0.3883
        23                          0.1142477               3.1088
        24                          0.1256341               3.4187
       ...                                ...                  ...
        36                          0.6795276              18.4909
      -------------------------------------------------------------
                  HL-Gap            0.1799925 Eh            4.8978 eV
             Fermi-level           -0.2882804 Eh           -7.8445 eV

 SCC (total)                   0 d,  0 h,  0 min,  0.772 sec
 SCC setup                      ...        0 min,  0.024 sec (  3.110%)
 Dispersion                     ...        0 min,  0.038 sec (  4.917%)
 classical contributions        ...        0 min,  0.021 sec (  2.673%)
 integral evaluation            ...        0 min,  0.076 sec (  9.858%)
 iterations                     ...        0 min,  0.385 sec ( 49.825%)
 molecular gradient             ...        0 min,  0.229 sec ( 29.597%)
 printout                       ...        0 min,  0.000 sec (  0.016%)

         :::::::::::::::::::::::::::::::::::::::::::::::::::::
         ::                     SUMMARY                     ::
         :::::::::::::::::::::::::::::::::::::::::::::::::::::
         :: total energy             -20.623677073800 Eh    ::
         :: gradient norm              0.000823686989 Eh/a0 ::
         :: HOMO-LUMO gap              4.897844135523 eV    ::
         ::.................................................::
         :: SCC energy               -20.928163519288 Eh    ::
         :: -> isotropic ES            0.011221221058 Eh    ::
         :: -> anisotropic ES          0.002837383789 Eh    ::
         :: -> anisotropic XC          0.017058595377 Eh    ::
         :: -> dispersion             -0.009674363909 Eh    ::
         :: repulsion energy           0.304486445488 Eh    ::
         :: add. restraining           0.000000000000 Eh    ::
         :: total charge              -0.000000000000 e     ::
         :::::::::::::::::::::::::::::::::::::::::::::::::::::

           -------------------------------------------------
          |                Property Printout                |
           -------------------------------------------------

    * Orbital Energies and Occupations

         #    Occupation            Energy/Eh            Energy/eV
      -------------------------------------------------------------
         1        2.0000           -0.6801861             -18.5088
       ...           ...                  ...                  ...
         7        2.0000           -0.5484976             -14.9254
         8        2.0000           -0.5456561             -14.8481
         9        2.0000           -0.5311673             -14.4538
        10        2.0000           -0.4948345             -13.4651
        11        2.0000           -0.4914738             -13.3737
        12        2.0000           -0.4836516             -13.1608
        13        2.0000           -0.4673241             -12.7165
        14        2.0000           -0.4652154             -12.6592
        15        2.0000           -0.4499028             -12.2425
        16        2.0000           -0.4408192             -11.9953
        17        2.0000           -0.3892884             -10.5931
        18        2.0000           -0.3793212             -10.3219
        19        2.0000           -0.3782766             -10.2934 (HOMO)
        20                         -0.1982841              -5.3956 (LUMO)
        21                         -0.1456261              -3.9627
        22                          0.0142712               0.3883
        23                          0.1142477               3.1088
        24                          0.1256341               3.4187
        25                          0.1424739               3.8769
        26                          0.1779677               4.8427
        27                          0.1840570               5.0084
        28                          0.1969751               5.3600
        29                          0.1986083               5.4044
        30                          0.2129832               5.7956
       ...                                ...                  ...
        36                          0.6795276              18.4909
      -------------------------------------------------------------
                  HL-Gap            0.1799925 Eh            4.8978 eV
             Fermi-level           -0.2882804 Eh           -7.8445 eV

     #   Z          covCN         q      C6AA      α(0)
     1   6 C        3.691    -0.061    21.857     6.690
     2   7 N        3.033     0.082    19.816     6.612
     3   6 C        3.023    -0.022    28.536     8.762
     4   6 C        3.025    -0.085    30.101     8.999
     5   6 C        3.153     0.068    26.206     8.372
     6   6 C        3.755    -0.109    22.632     6.783
     7   7 N        2.015    -0.254    27.397     7.763
     8   1 H        0.924     0.057     2.237     2.339
     9   1 H        0.924     0.057     2.237     2.339
    10   1 H        0.925     0.083     1.950     2.184
    11   1 H        0.926     0.026     2.638     2.540
    12   1 H        0.926     0.020     2.730     2.584
    13   1 H        0.925     0.042     2.416     2.431
    14   1 H        0.925     0.053     2.280     2.361
    15   1 H        0.925     0.042     2.418     2.432

 Mol. C6AA /au·bohr⁶  :       2235.638760
 Mol. C8AA /au·bohr⁸  :      50347.513233
 Mol. α(0) /au        :         73.191564


Wiberg/Mayer (AO) data.
largest (>0.10) Wiberg bond orders for each atom

 ---------------------------------------------------------------------------
     #   Z sym  total        # sym  WBO       # sym  WBO       # sym  WBO
 ---------------------------------------------------------------------------
     1   6 C    3.971 --     2 N    1.005    10 H    0.979     9 H    0.975
                             8 H    0.974
     2   7 N    3.668 --     3 C    1.276     7 N    1.197     1 C    1.005
     3   6 C    3.958 --     4 C    1.512     2 N    1.276    11 H    0.969
                             7 N    0.154
     4   6 C    3.977 --     3 C    1.512     5 C    1.338    12 H    0.975
     5   6 C    3.977 --     7 N    1.484     4 C    1.338     6 C    1.027
     6   6 C    3.997 --     5 C    1.027    14 H    0.984    15 H    0.974
                            13 H    0.973
     7   7 N    2.956 --     5 C    1.484     2 N    1.197     3 C    0.154
     8   1 H    0.996 --     1 C    0.974
     9   1 H    0.996 --     1 C    0.975
    10   1 H    0.993 --     1 C    0.979
    11   1 H    0.999 --     3 C    0.969
    12   1 H    1.000 --     4 C    0.975
    13   1 H    0.998 --     6 C    0.973
    14   1 H    0.997 --     6 C    0.984
    15   1 H    0.998 --     6 C    0.974
 ---------------------------------------------------------------------------

Topologies differ in total number of bonds
Writing topology from bond orders to xtbtopo.mol

molecular dipole:
                 x           y           z       tot (Debye)
 q only:       -0.626      -0.024      -0.029
   full:       -0.625      -0.429      -0.115       1.949
molecular quadrupole (traceless):
                xx          xy          yy          xz          yz          zz
 q only:        5.507      -0.016      -2.718       0.323       0.024      -2.789
  q+dip:        6.181       0.426      -2.822       0.470       0.141      -3.359
   full:        6.104       0.499      -3.562       0.446      -0.196      -2.542

           -------------------------------------------------
          |                Geometry Summary                 |
           -------------------------------------------------

      molecular mass/u    :       96.1306119
   center of mass at/Å    :       -0.0230292      -0.0213018      -0.0051687
  moments of inertia/u·Å² :        0.7567534E+02   0.2345708E+03   0.3039198E+03
rotational constants/cm⁻¹ :        0.2227626E+00   0.7186586E-01   0.5546737E-01

 * 15 selected distances

     #   Z          #   Z                                           value/Å
     1   6 C        2   7 N                                       1.4333333
     2   7 N        3   6 C                                       1.3480788
     3   6 C        4   6 C                                       1.3744108
     4   6 C        5   6 C                                       1.4076133
     5   6 C        6   6 C                                       1.4873205 (max)
     2   7 N        7   7 N                                       1.3307612
     5   6 C        7   7 N                                       1.3225865
     1   6 C        8   1 H                                       1.0927808
     1   6 C        9   1 H                                       1.0925810
     1   6 C       10   1 H                                       1.0884517
     3   6 C       11   1 H                                       1.0718506
     4   6 C       12   1 H                                       1.0708272 (min)
     6   6 C       13   1 H                                       1.0896125
     6   6 C       14   1 H                                       1.0863013
     6   6 C       15   1 H                                       1.0895517

 * 4 distinct bonds (by element types)

   Z      Z             #   av. dist./Å        max./Å        min./Å
   1 H    6 C           8     1.0852446     1.0927808     1.0708272
   6 C    6 C           3     1.4231149     1.4873205     1.3744108
   6 C    7 N           3     1.3679995     1.4333333     1.3225865
   7 N    7 N           1     1.3307612     1.3307612     1.3307612


optimized geometry written to: xtbopt.xyz


           -------------------------------------------------
          | TOTAL ENERGY              -20.623677073800 Eh   |
          | GRADIENT NORM               0.000823686989 Eh/α |
          | HOMO-LUMO GAP               4.897844135523 eV   |
           -------------------------------------------------

------------------------------------------------------------------------
 * finished run on 2026/01/15 at 10:42:01.510     
------------------------------------------------------------------------
 total:
 * wall-time:     0 d,  0 h,  0 min, 27.159 sec
 *  cpu-time:     0 d,  0 h,  1 min, 21.671 sec
 * ratio c/w:     3.007 speedup
 SCF:
 * wall-time:     0 d,  0 h,  0 min,  1.689 sec
 *  cpu-time:     0 d,  0 h,  0 min,  5.474 sec
 * ratio c/w:     3.241 speedup
 ANC optimizer:
 * wall-time:     0 d,  0 h,  0 min, 25.255 sec
 *  cpu-time:     0 d,  0 h,  1 min, 15.710 sec
 * ratio c/w:     2.998 speedup

