15
 energy: -20.623677073800 gnorm: 0.000823686989 xtb: 6.7.1 (edcfbbe)
C           -2.43690201220151        0.39247053597259       -0.01765449206537
N           -1.06895243160326       -0.03430480308070       -0.04960236293365
C           -0.59562879838941       -1.27356408689578       -0.28942998244585
C            0.77490943816252       -1.19859689674253       -0.21865145905982
C            1.04632702822973        0.15123464254511        0.07402936695836
C            2.37140354648439        0.79970647989542        0.26318092313695
N           -0.08333088889124        0.83219950967579        0.17095505781926
H           -2.91022976484070        0.25224362224330       -0.99257342990012
H           -2.99923666914932       -0.16717937792425        0.73354763164965
H           -2.44557048370223        1.45045018822337        0.23794422777639
H           -1.25077752014904       -2.09841735453343       -0.48757297125611
H            1.48265206046133       -1.99052402731706       -0.35511530095568
H            2.97294955511870        0.70556821911316       -0.64044259910882
H            2.22977348056249        1.85263703524384        0.48973871301292
H            2.91261445990745        0.32607631358110        1.08164767737179
