15
 energy: -20.721063578206 gnorm: 0.000820930617 xtb: 6.7.1 (edcfbbe)
C           -2.32842805074552        0.39711529963330       -0.14442521778806
N           -1.17632172942854       -0.12180689721176        0.58211007137084
C           -0.64652941988531       -1.37497956125738        0.12844184349976
C            0.71309877190044       -1.18082446183164       -0.13605807836811
C            1.00111987426207        0.13236302042148        0.20093955761587
C            2.33004095137013        0.81722023295127        0.11870015198655
N           -0.09816187123654        0.81288456566995        0.61793375392589
H           -2.15351782567931        0.52310253918265       -1.23114381503269
H           -3.17214731319595       -0.28845542140617       -0.01119725696445
H           -2.58855329153241        1.37215981216017        0.27298610400999
H           -1.31807402249467       -2.15185437013906       -0.20447147042087
H            1.41331030830961       -1.93057470190588       -0.48355295728085
H            2.58524638671825        1.08788499763349       -0.91500460207434
H            2.30928102678521        1.73341033074052        0.70869750193452
H            3.12963720485264        0.17235461535909        0.49604541358601
