17
 energy: -27.996517288700 gnorm: 0.000634911747 xtb: 6.7.1 (edcfbbe)
C           -2.63698419027343        0.55702923224676       -0.35370829374229
C           -1.35773528466331       -0.13342811952372       -0.09779337368374
C           -0.77541700187809       -1.28565720500652       -0.60419533361566
C            0.58985131455578       -1.22206351600360       -0.72183412059734
N            1.08036090620309        0.09404509091198       -0.50893404752605
C            2.39063544930635        0.24266590860825        0.09952057454612
N            0.14273378232291        0.97306873344919       -0.11739341926794
S           -0.50084663289450        0.53661395446074        1.81904668460212
O            0.26712466264633       -0.67338242654746        2.29053222807865
H           -2.70019427701876        1.44880121328833        0.26752704490354
H           -3.47014798799710       -0.10623543659537       -0.09931127250502
H           -2.74743913702055        0.85909044776037       -1.40371879722192
H           -1.34033137616442       -2.18917621275827       -0.78241789953251
H            1.29612628766892       -2.01223391958922       -0.90501753289641
H            2.39750759041894       -0.10212414883013        1.13818346591619
H            3.11606094289206       -0.33205154800273       -0.48078586489299
H            2.65954195189433        1.30021795212219        0.07600395744600
