      -----------------------------------------------------------      
     |                   =====================                   |     
     |                           x T B                           |     
     |                   =====================                   |     
     |                         S. Grimme                         |     
     |          Mulliken Center for Theoretical Chemistry        |     
     |                    University of Bonn                     |     
      -----------------------------------------------------------      

   * xtb version 6.7.1 (edcfbbe) compiled by 'conda@c0858423619e' on 2025-09-04

   xtb is free software: you can redistribute it and/or modify it under
   the terms of the GNU Lesser General Public License as published by
   the Free Software Foundation, either version 3 of the License, or
   (at your option) any later version.
   
   xtb is distributed in the hope that it will be useful,
   but WITHOUT ANY WARRANTY; without even the implied warranty of
   MERCHANTABILITY or FITNESS FOR A PARTICULAR PURPOSE.  See the
   GNU Lesser General Public License for more details.
   
   Cite this work as:
   * C. Bannwarth, E. Caldeweyher, S. Ehlert, A. Hansen, P. Pracht,
     J. Seibert, S. Spicher, S. Grimme, WIREs Comput. Mol. Sci., 2020, 11,
     e01493. DOI: 10.1002/wcms.1493
   
   for GFN2-xTB:
   * C. Bannwarth, S. Ehlert and S. Grimme., J. Chem. Theory Comput., 2019,
     15, 1652-1671. DOI: 10.1021/acs.jctc.8b01176
   for GFN1-xTB:
   * S. Grimme, C. Bannwarth, P. Shushkov, J. Chem. Theory Comput., 2017,
     13, 1989-2009. DOI: 10.1021/acs.jctc.7b00118
   for GFN0-xTB:
   * P. Pracht, E. Caldeweyher, S. Ehlert, S. Grimme, ChemRxiv, 2019, preprint.
     DOI: 10.26434/chemrxiv.8326202.v1
   for GFN-FF:
   * S. Spicher and S. Grimme, Angew. Chem. Int. Ed., 2020, 59, 15665-15673.
     DOI: 10.1002/anie.202004239
   
   for ALPB and GBSA implicit solvation:
   * S. Ehlert, M. Stahn, S. Spicher, S. Grimme, J. Chem. Theory Comput.,
     2021, 17, 4250-4261. DOI: 10.1021/acs.jctc.1c00471
   
   for ddCOSMO and CPCM-X implicit solvation:
   * M. Stahn, S. Ehlert, S. Grimme, J. Phys. Chem. A,
     2023, XX, XXXX-XXXX. DOI: 10.1021/acs.jpca.3c04382
   
   for DFT-D4:
   * E. Caldeweyher, C. Bannwarth and S. Grimme, J. Chem. Phys., 2017,
     147, 034112. DOI: 10.1063/1.4993215
   * E. Caldeweyher, S. Ehlert, A. Hansen, H. Neugebauer, S. Spicher,
     C. Bannwarth and S. Grimme, J. Chem. Phys., 2019, 150, 154122.
     DOI: 10.1063/1.5090222
   * E. Caldeweyher, J.-M. Mewes, S. Ehlert and S. Grimme, Phys. Chem. Chem. Phys.
     2020, 22, 8499-8512. DOI: 10.1039/D0CP00502A
   
   for sTDA-xTB:
   * S. Grimme and C. Bannwarth, J. Chem. Phys., 2016, 145, 054103.
     DOI: 10.1063/1.4959605
   
   in the mass-spec context:
   * V. Asgeirsson, C. Bauer and S. Grimme, Chem. Sci., 2017, 8, 4879.
     DOI: 10.1039/c7sc00601b
   * J. Koopman and S. Grimme, ACS Omega 2019, 4, 12, 15120-15133.
     DOI: 10.1021/acsomega.9b02011
   
   for metadynamics refer to:
   * S. Grimme, J. Chem. Theory Comput., 2019, 155, 2847-2862
     DOI: 10.1021/acs.jctc.9b00143
   
   for SPH calculations refer to:
   * S. Spicher and S. Grimme, J. Chem. Theory Comput., 2021, 17, 1701-1714
     DOI: 10.1021/acs.jctc.0c01306
   
   for ONIOM refer to:
   * C. Plett, A. Katbashev, S. Ehlert, S. Grimme, M. Bursch,
     Phys. Chem. Chem. Phys., 2023, 25, 17860-17868. DOI: 10.1039/D3CP02178E
   
   for DIPRO refer to:
   * J. Kohn, N. Gildemeister, S. Grimme, D. Fazzi, A. Hansen,
     J. Chem. Phys., 2023, just accepted.
   
   for PTB refer to:
   * S. Grimme, M. Mueller, A. Hansen, J. Chem. Phys., 2023, 158, 124111.
     DOI: 10.1063/5.0137838
   
   with help from (in alphabetical order)
   P. Atkinson, C. Bannwarth, F. Bohle, G. Brandenburg, E. Caldeweyher
   M. Checinski, S. Dohm, S. Ehlert, S. Ehrlich, I. Gerasimov, C. Hölzer
   A. Katbashev, J. Kohn, J. Koopman, C. Lavigne, S. Lehtola, F. März, M. Müller,
   F. Musil, H. Neugebauer, J. Pisarek, C. Plett, P. Pracht, F. Pultar,
   J. Seibert, P. Shushkov, S. Spicher, M. Stahn, M. Steiner, T. Strunk,
   J. Stückrath, T. Rose, and J. Unsleber
   
 * started run on 2026/01/15 at 10:11:23.904     
   ID    Z sym.   atoms
    1    6 C      1-4, 6
    2    7 N      5, 7
    3   16 S      8
    4    8 O      9
    5    1 H      10-17
constraining bond 8 2 to    2.2000000 Å, actual value:    1.8004763 Å
constraining bond 8 7 to    2.1000000 Å, actual value:    1.6550573 Å
constraining bond 2 7 to    1.9000000 Å, actual value:    2.6302948 Å

           -------------------------------------------------
          |                Calculation Setup                |
           -------------------------------------------------

          program call               : /h/28/cicsy/miniforge3/envs/elagente/bin/xtb N4-Me_TDSO_deprotonated_opt.xyz --opt --gfn 2 -P 4 --chrg -1 --input detailed_input.inp
          coordinate file            : N4-Me_TDSO_deprotonated_opt.xyz
          omp threads                :                     4


           -------------------------------------------------
          |                 G F N 2 - x T B                 |
           -------------------------------------------------

        Reference                      10.1021/acs.jctc.8b01176
      * Hamiltonian:
        H0-scaling (s, p, d)           1.850000    2.230000    2.230000
        zeta-weighting                 0.500000
      * Dispersion:
        s8                             2.700000
        a1                             0.520000
        a2                             5.000000
        s9                             5.000000
      * Repulsion:
        kExp                           1.500000    1.000000
        rExp                           1.000000
      * Coulomb:
        alpha                          2.000000
        third order                    shell-resolved
        anisotropic                    true
        a3                             3.000000
        a5                             4.000000
        cn-shift                       1.200000
        cn-exp                         4.000000
        max-rad                        5.000000


          ...................................................
          :                      SETUP                      :
          :.................................................:
          :  # basis functions                  50          :
          :  # atomic orbitals                  49          :
          :  # shells                           27          :
          :  # electrons                        51          :
          :  max. iterations                   250          :
          :  Hamiltonian                  GFN2-xTB          :
          :  restarted?                      false          :
          :  GBSA solvation                  false          :
          :  PC potential                    false          :
          :  electronic temp.          300.0000000     K    :
          :  accuracy                    1.0000000          :
          :  -> integral cutoff          0.2500000E+02      :
          :  -> integral neglect         0.1000000E-07      :
          :  -> SCF convergence          0.1000000E-05 Eh   :
          :  -> wf. convergence          0.1000000E-03 e    :
          :  Broyden damping             0.4000000          :
          :  net charge                         -1          :
          :  unpaired electrons                  0          :
          ...................................................

 iter      E             dE          RMSdq      gap      omega  full diag
   1    -28.2740956 -0.282741E+02  0.434E+00    2.58       0.0  T
   2    -28.3420774 -0.679818E-01  0.254E+00    2.87       1.0  T
   3    -28.3387461  0.333131E-02  0.137E+00    2.79       1.0  T
   4    -28.3340810  0.466503E-02  0.967E-01    2.84       1.0  T
   5    -28.3488480 -0.147669E-01  0.199E-01    2.84       1.0  T
   6    -28.3488786 -0.306705E-04  0.102E-01    2.81       1.0  T
   7    -28.3489225 -0.438455E-04  0.395E-02    2.82       1.0  T
   8    -28.3489248 -0.235104E-05  0.241E-02    2.82       1.0  T
   9    -28.3489247  0.135905E-06  0.133E-02    2.82       1.8  T
  10    -28.3489262 -0.151128E-05  0.391E-03    2.82       6.2  T
  11    -28.3489262 -0.183196E-07  0.138E-03    2.82      17.5  T
  12    -28.3489262 -0.294813E-08  0.329E-04    2.82      73.8  T
  13    -28.3489262 -0.593484E-09  0.128E-04    2.82     190.0  T

   *** convergence criteria satisfied after 13 iterations ***

         #    Occupation            Energy/Eh            Energy/eV
      -------------------------------------------------------------
         1        2.0000           -0.5310749             -14.4513
       ...           ...                  ...                  ...
        20        2.0000           -0.2589968              -7.0477
        21        2.0000           -0.2343001              -6.3756
        22        2.0000           -0.2169934              -5.9047
        23        2.0000           -0.1799513              -4.8967
        24        2.0000           -0.1702629              -4.6331
        25        2.0000           -0.1533578              -4.1731
        26        1.0000           -0.0888177              -2.4169 (HOMO)
        27                          0.0148225               0.4033 (LUMO)
        28                          0.0228015               0.6205
        29                          0.0735785               2.0022
        30                          0.1349947               3.6734
        31                          0.1885798               5.1315
       ...                                ...                  ...
        49                          1.0294869              28.0138
      -------------------------------------------------------------
                  HL-Gap            0.1036402 Eh            2.8202 eV
             Fermi-level           -0.0790427 Eh           -2.1509 eV

 SCC (total)                   0 d,  0 h,  0 min,  1.256 sec
 SCC setup                      ...        0 min,  0.008 sec (  0.627%)
 Dispersion                     ...        0 min,  0.000 sec (  0.023%)
 classical contributions        ...        0 min,  0.001 sec (  0.042%)
 integral evaluation            ...        0 min,  0.023 sec (  1.863%)
 iterations                     ...        0 min,  1.158 sec ( 92.189%)
 molecular gradient             ...        0 min,  0.066 sec (  5.237%)
 printout                       ...        0 min,  0.000 sec (  0.018%)

         :::::::::::::::::::::::::::::::::::::::::::::::::::::
         ::                     SUMMARY                     ::
         :::::::::::::::::::::::::::::::::::::::::::::::::::::
         :: total energy             -26.463158431854 Eh    ::
         :: gradient norm              1.679430836139 Eh/a0 ::
         :: HOMO-LUMO gap              2.820193166113 eV    ::
         ::.................................................::
         :: SCC energy               -28.348905111987 Eh    ::
         :: -> isotropic ES            0.167884295215 Eh    ::
         :: -> anisotropic ES          0.001992636855 Eh    ::
         :: -> anisotropic XC          0.012765010206 Eh    ::
         :: -> dispersion             -0.016864375039 Eh    ::
         :: repulsion energy           0.294973678532 Eh    ::
         :: add. restraining           1.590773001600 Eh    ::
         :: total charge              -1.000000000000 e     ::
         :::::::::::::::::::::::::::::::::::::::::::::::::::::

      ----------------------------------------------------------- 
     |                   =====================                   |
     |                        A N C O P T                        |
     |                   =====================                   |
     |               Approximate Normal Coordinate               |
     |                Rational Function Optimizer                |
      ----------------------------------------------------------- 
      ----------------------------------------------------------- 
     |                   =====================                   |
     |                        A N C O P T                        |
     |                   =====================                   |
     |               Approximate Normal Coordinate               |
     |                Rational Function Optimizer                |
      ----------------------------------------------------------- 

          ...................................................
          :                      SETUP                      :
          :.................................................:
          :   optimization level            normal          :
          :   max. optcycles                   200          :
          :   ANC micro-cycles                  20          :
          :   degrees of freedom                45          :
          :.................................................:
          :   RF solver                   davidson          :
          :   write xtbopt.log                true          :
          :   linear?                        false          :
          :   energy convergence         0.5000000E-05 Eh   :
          :   grad. convergence          0.1000000E-02 Eh/α :
          :   maxmium RF displ.          1.0000000          :
          :   Hlow (freq-cutoff)         0.1000000E-01      :
          :   Hmax (freq-cutoff)         5.0000000          :
          :   S6 in model hess.         20.0000000          :
          ...................................................

generating ANC from exact Hessian ...
Using Lindh-Hessian (1995)
 Shifting diagonal of input Hessian by   0.31722459394720487     
 Lowest  eigenvalues of input Hessian
    0.010000    0.000000    0.000000    0.000000    0.000000    0.000000
    0.000000    0.322709    0.325423    0.329343    0.330373    0.333799
    0.342717    0.353433    0.363961    0.370523    0.379880    0.382803
 Highest eigenvalues
    1.944623    2.205239    2.319831    2.373754    3.936895    4.513779


........................................................................
.............................. CYCLE    1 ..............................
........................................................................

 iter      E             dE          RMSdq      gap      omega  full diag
   1    -28.3489262 -0.283489E+02  0.340E-05    2.82       0.0  T
   2    -28.3489262 -0.810019E-12  0.224E-05    2.82    1081.0  T
   3    -28.3489262  0.150280E-11  0.154E-05    2.82    1570.2  T
     SCC iter.                  ...        0 min,  0.251 sec
     gradient                   ...        0 min,  0.082 sec
 * total energy  :   -26.4631584 Eh     change       -0.3507949E-10 Eh
   gradient norm :     1.6793397 Eh/α   predicted     0.0000000E+00 (-100.00%)
   displ. norm   :     0.7149495 α      lambda       -0.1167778E+01
   maximum displ.:     0.5496267 α      in ANC's #31, #28, #38, ...

........................................................................
.............................. CYCLE    2 ..............................
........................................................................

 iter      E             dE          RMSdq      gap      omega  full diag
   1    -28.2980018 -0.282980E+02  0.135E+00    1.56       0.0  T
   2    -28.3020888 -0.408706E-02  0.927E-01    1.61       1.0  T
   3    -28.3029828 -0.893980E-03  0.499E-01    1.60       1.0  T
   4    -28.3040061 -0.102327E-02  0.224E-01    1.62       1.0  T
   5    -28.3045122 -0.506170E-03  0.101E-01    1.61       1.0  T
   6    -28.3045561 -0.438788E-04  0.547E-02    1.61       1.0  T
   7    -28.3045870 -0.309040E-04  0.172E-02    1.61       1.4  T
   8    -28.3045889 -0.190038E-05  0.624E-03    1.61       3.9  T
   9    -28.3045890 -0.756775E-07  0.265E-03    1.61       9.2  T
  10    -28.3045890 -0.960771E-08  0.689E-04    1.61      35.2  T
  11    -28.3045890 -0.158510E-08  0.329E-04    1.61      73.8  T
     SCC iter.                  ...        0 min,  1.986 sec
     gradient                   ...        0 min,  0.154 sec
 * total energy  :   -27.4346820 Eh     change       -0.9715236E+00 Eh
   gradient norm :     1.0516096 Eh/α   predicted    -0.8823451E+00 (  -9.18%)
   displ. norm   :     0.6978928 α      lambda       -0.7141520E+00
   maximum displ.:     0.5158008 α      in ANC's #31, #28, #38, ...

........................................................................
.............................. CYCLE    3 ..............................
........................................................................

 iter      E             dE          RMSdq      gap      omega  full diag
   1    -28.1929653 -0.281930E+02  0.302E+00    1.21       0.0  T
   2    -28.1845571  0.840821E-02  0.208E+00    1.42       1.0  T
   3    -28.2300317 -0.454746E-01  0.127E+00    1.32       1.0  T
   4    -28.2367019 -0.667013E-02  0.392E-01    1.34       1.0  T
   5    -28.2374373 -0.735439E-03  0.169E-01    1.37       1.0  T
   6    -28.2377086 -0.271331E-03  0.594E-02    1.36       1.0  T
   7    -28.2377144 -0.574322E-05  0.206E-02    1.36       1.2  T
   8    -28.2377143  0.113785E-06  0.143E-02    1.36       1.7  T
   9    -28.2377176 -0.334400E-05  0.553E-03    1.36       4.4  T
  10    -28.2377177 -0.119480E-06  0.241E-03    1.36      10.1  T
  11    -28.2377177 -0.690637E-08  0.138E-03    1.36      17.6  T
  12    -28.2377177 -0.122413E-07  0.288E-04    1.36      84.2  T
  13    -28.2377177 -0.594714E-09  0.101E-04    1.36     239.8  T
     SCC iter.                  ...        0 min,  2.799 sec
     gradient                   ...        0 min,  0.047 sec
 * total energy  :   -27.8890553 Eh     change       -0.4543733E+00 Eh
   gradient norm :     0.2996762 Eh/α   predicted    -0.5309915E+00 (  16.86%)
   displ. norm   :     0.5134535 α      lambda       -0.8676939E-01
   maximum displ.:     0.4426985 α      in ANC's #1, #31, #28, ...

........................................................................
.............................. CYCLE    4 ..............................
........................................................................

 iter      E             dE          RMSdq      gap      omega  full diag
   1    -28.2074339 -0.282074E+02  0.998E-01    1.24       0.0  T
   2    -28.2079687 -0.534866E-03  0.624E-01    1.20       1.0  T
   3    -28.2106867 -0.271792E-02  0.444E-01    1.29       1.0  T
   4    -28.2122142 -0.152757E-02  0.158E-01    1.26       1.0  T
   5    -28.2122659 -0.516929E-04  0.110E-01    1.28       1.0  T
   6    -28.2124673 -0.201358E-03  0.357E-02    1.27       1.0  T
   7    -28.2124691 -0.185228E-05  0.147E-02    1.27       1.7  T
   8    -28.2124706 -0.149369E-05  0.841E-03    1.27       2.9  T
   9    -28.2124708 -0.223076E-06  0.458E-03    1.27       5.3  T
  10    -28.2124710 -0.132675E-06  0.195E-03    1.27      12.4  T
  11    -28.2124710 -0.133171E-07  0.479E-04    1.27      50.6  T
  12    -28.2124710 -0.417618E-09  0.182E-04    1.27     133.3  T
     SCC iter.                  ...        0 min,  0.933 sec
     gradient                   ...        0 min,  0.086 sec
 * total energy  :   -27.9308720 Eh     change       -0.4181670E-01 Eh
   gradient norm :     0.2241126 Eh/α   predicted    -0.5482237E-01 (  31.10%)
   displ. norm   :     0.4451395 α      lambda       -0.2834264E-01
   maximum displ.:     0.3917598 α      in ANC's #1, #24, #8, ...

........................................................................
.............................. CYCLE    5 ..............................
........................................................................

 iter      E             dE          RMSdq      gap      omega  full diag
   1    -28.1884439 -0.281884E+02  0.136E+00    1.18       0.0  T
   2    -28.1832736  0.517025E-02  0.165E+00    1.25       1.0  T
   3    -28.2095122 -0.262386E-01  0.356E-01    1.17       1.0  T
   4    -28.2080724  0.143989E-02  0.341E-01    1.20       1.0  T
   5    -28.2095770 -0.150462E-02  0.146E-01    1.18       1.0  T
   6    -28.2097255 -0.148494E-03  0.521E-02    1.18       1.0  T
   7    -28.2097340 -0.848010E-05  0.107E-02    1.18       2.3  T
   8    -28.2097345 -0.589701E-06  0.426E-03    1.18       5.7  T
   9    -28.2097347 -0.128470E-06  0.242E-03    1.18      10.0  T
  10    -28.2097347 -0.423377E-07  0.908E-04    1.18      26.7  T
  11    -28.2097347 -0.293190E-08  0.369E-04    1.18      65.7  T
     SCC iter.                  ...        0 min,  1.232 sec
     gradient                   ...        0 min,  0.002 sec
 * total energy  :   -27.9366776 Eh     change       -0.5805648E-02 Eh
   gradient norm :     0.1289210 Eh/α   predicted    -0.1697935E-01 ( 192.46%)
   displ. norm   :     0.4514929 α      lambda       -0.2672040E-01
   maximum displ.:     0.4006438 α      in ANC's #1, #31, #8, ...

........................................................................
.............................. CYCLE    6 ..............................
........................................................................

 iter      E             dE          RMSdq      gap      omega  full diag
   1    -28.2086155 -0.282086E+02  0.114E+00    1.29       0.0  T
   2    -28.2103303 -0.171483E-02  0.868E-01    1.14       1.0  T
   3    -28.2175642 -0.723386E-02  0.268E-01    1.21       1.0  T
   4    -28.2174672  0.969278E-04  0.146E-01    1.19       1.0  T
   5    -28.2178036 -0.336354E-03  0.958E-02    1.20       1.0  T
   6    -28.2179060 -0.102386E-03  0.257E-02    1.19       1.0  T
   7    -28.2179093 -0.333343E-05  0.129E-02    1.19       1.9  T
   8    -28.2179105 -0.116847E-05  0.535E-03    1.19       4.5  T
   9    -28.2179106 -0.103580E-06  0.276E-03    1.19       8.8  T
  10    -28.2179106 -0.423210E-07  0.100E-03    1.19      24.2  T
  11    -28.2179106 -0.263645E-08  0.358E-04    1.19      67.8  T
  12    -28.2179106 -0.447923E-09  0.902E-05    1.19     268.9  T
     SCC iter.                  ...        0 min,  1.013 sec
     gradient                   ...        0 min,  0.198 sec
 * total energy  :   -27.9505244 Eh     change       -0.1384677E-01 Eh
   gradient norm :     0.1384478 Eh/α   predicted    -0.1608361E-01 (  16.15%)
   displ. norm   :     0.2880895 α      lambda       -0.1097066E-01
   maximum displ.:     0.2550731 α      in ANC's #1, #8, #9, ...

........................................................................
.............................. CYCLE    7 ..............................
........................................................................

 iter      E             dE          RMSdq      gap      omega  full diag
   1    -28.2208392 -0.282208E+02  0.360E-01    1.18       0.0  T
   2    -28.2208957 -0.565438E-04  0.307E-01    1.14       1.0  T
   3    -28.2215825 -0.686830E-03  0.123E-01    1.16       1.0  T
   4    -28.2215190  0.635447E-04  0.741E-02    1.16       1.0  T
   5    -28.2216113 -0.922994E-04  0.389E-02    1.16       1.0  T
   6    -28.2216262 -0.149593E-04  0.118E-02    1.16       2.1  T
   7    -28.2216265 -0.222212E-06  0.643E-03    1.16       3.8  T
   8    -28.2216268 -0.346307E-06  0.259E-03    1.16       9.4  T
   9    -28.2216268 -0.312382E-07  0.144E-03    1.16      16.9  T
  10    -28.2216269 -0.115885E-07  0.398E-04    1.16      60.9  T
  11    -28.2216269 -0.715737E-09  0.190E-04    1.16     127.8  T
     SCC iter.                  ...        0 min,  1.148 sec
     gradient                   ...        0 min,  0.113 sec
 * total energy  :   -27.9580733 Eh     change       -0.7548904E-02 Eh
   gradient norm :     0.0444709 Eh/α   predicted    -0.5940590E-02 ( -21.31%)
   displ. norm   :     0.2623834 α      lambda       -0.7197731E-02
   maximum displ.:     0.1350359 α      in ANC's #8, #1, #9, ...

........................................................................
.............................. CYCLE    8 ..............................
........................................................................

 iter      E             dE          RMSdq      gap      omega  full diag
   1    -28.2311360 -0.282311E+02  0.254E-01    1.10       0.0  T
   2    -28.2309939  0.142123E-03  0.255E-01    1.12       1.0  T
   3    -28.2316102 -0.616265E-03  0.924E-02    1.11       1.0  T
   4    -28.2315752  0.350019E-04  0.664E-02    1.12       1.0  T
   5    -28.2316258 -0.506566E-04  0.209E-02    1.11       1.2  T
   6    -28.2316294 -0.357686E-05  0.748E-03    1.11       3.2  T
   7    -28.2316295 -0.113152E-06  0.306E-03    1.11       7.9  T
   8    -28.2316296 -0.557716E-07  0.142E-03    1.11      17.0  T
   9    -28.2316296 -0.656633E-08  0.633E-04    1.11      38.3  T
  10    -28.2316296 -0.194002E-08  0.261E-04    1.11      93.0  T
     SCC iter.                  ...        0 min,  2.540 sec
     gradient                   ...        0 min,  0.058 sec
 * total energy  :   -27.9635589 Eh     change       -0.5485551E-02 Eh
   gradient norm :     0.0473859 Eh/α   predicted    -0.3846623E-02 ( -29.88%)
   displ. norm   :     0.3311639 α      lambda       -0.8193469E-02
   maximum displ.:     0.2079419 α      in ANC's #8, #9, #15, ...

........................................................................
.............................. CYCLE    9 ..............................
........................................................................

 iter      E             dE          RMSdq      gap      omega  full diag
   1    -28.2464238 -0.282464E+02  0.492E-01    1.06       0.0  T
   2    -28.2455239  0.899891E-03  0.588E-01    1.10       1.0  T
   3    -28.2490846 -0.356067E-02  0.153E-01    1.08       1.0  T
   4    -28.2489028  0.181778E-03  0.118E-01    1.09       1.0  T
   5    -28.2490934 -0.190549E-03  0.378E-02    1.08       1.0  T
   6    -28.2491032 -0.981445E-05  0.997E-03    1.08       2.4  T
   7    -28.2491033 -0.708710E-07  0.329E-03    1.08       7.4  T
   8    -28.2491033 -0.568978E-07  0.167E-03    1.08      14.5  T
   9    -28.2491033 -0.749877E-08  0.875E-04    1.08      27.7  T
  10    -28.2491033 -0.348323E-08  0.441E-04    1.08      54.9  T
     SCC iter.                  ...        0 min,  0.628 sec
     gradient                   ...        0 min,  0.002 sec
 * total energy  :   -27.9686188 Eh     change       -0.5059898E-02 Eh
   gradient norm :     0.0443863 Eh/α   predicted    -0.4546018E-02 ( -10.16%)
   displ. norm   :     0.1565414 α      lambda       -0.2332507E-02
   maximum displ.:     0.1066053 α      in ANC's #8, #5, #6, ...

........................................................................
.............................. CYCLE   10 ..............................
........................................................................

 iter      E             dE          RMSdq      gap      omega  full diag
   1    -28.2544918 -0.282545E+02  0.163E-01    1.05       0.0  T
   2    -28.2544111  0.806719E-04  0.173E-01    1.04       1.0  T
   3    -28.2547119 -0.300819E-03  0.579E-02    1.04       1.0  T
   4    -28.2546972  0.146804E-04  0.333E-02    1.05       1.0  T
   5    -28.2547145 -0.172342E-04  0.865E-03    1.04       2.8  T
   6    -28.2547148 -0.280503E-06  0.343E-03    1.04       7.1  T
   7    -28.2547148 -0.402329E-07  0.166E-03    1.04      14.6  T
   8    -28.2547148 -0.238329E-07  0.706E-04    1.04      34.4  T
   9    -28.2547148 -0.532388E-09  0.343E-04    1.04      70.8  T
     SCC iter.                  ...        0 min,  0.949 sec
     gradient                   ...        0 min,  0.002 sec
 * total energy  :   -27.9705290 Eh     change       -0.1910249E-02 Eh
   gradient norm :     0.0381149 Eh/α   predicted    -0.1194831E-02 ( -37.45%)
   displ. norm   :     0.2956875 α      lambda       -0.4369522E-02
   maximum displ.:     0.1950609 α      in ANC's #8, #5, #6, ...

........................................................................
.............................. CYCLE   11 ..............................
........................................................................

 iter      E             dE          RMSdq      gap      omega  full diag
   1    -28.2593288 -0.282593E+02  0.255E-01    0.97       0.0  T
   2    -28.2593261  0.266312E-05  0.182E-01    0.94       1.0  T
   3    -28.2594355 -0.109345E-03  0.114E-01    0.95       1.0  T
   4    -28.2595342 -0.987068E-04  0.455E-02    0.96       1.0  T
   5    -28.2595610 -0.267995E-04  0.107E-02    0.95       2.3  T
   6    -28.2595612 -0.239089E-06  0.611E-03    0.95       4.0  T
   7    -28.2595615 -0.221061E-06  0.214E-03    0.95      11.3  T
   8    -28.2595615 -0.235513E-07  0.107E-03    0.95      22.7  T
   9    -28.2595615 -0.340270E-08  0.601E-04    0.95      40.3  T
  10    -28.2595615 -0.160981E-08  0.181E-04    0.95     133.8  T
     SCC iter.                  ...        0 min,  1.024 sec
     gradient                   ...        0 min,  0.162 sec
 * total energy  :   -27.9734930 Eh     change       -0.2963970E-02 Eh
   gradient norm :     0.0225034 Eh/α   predicted    -0.2375768E-02 ( -19.85%)
   displ. norm   :     0.2145644 α      lambda       -0.1884102E-02
   maximum displ.:     0.1252314 α      in ANC's #8, #5, #1, ...

........................................................................
.............................. CYCLE   12 ..............................
........................................................................

 iter      E             dE          RMSdq      gap      omega  full diag
   1    -28.2590265 -0.282590E+02  0.176E-01    0.89       0.0  T
   2    -28.2590676 -0.411606E-04  0.105E-01    0.87       1.0  T
   3    -28.2591042 -0.366176E-04  0.674E-02    0.88       1.0  T
   4    -28.2591271 -0.228091E-04  0.229E-02    0.88       1.1  T
   5    -28.2591312 -0.417861E-05  0.854E-03    0.88       2.8  T
   6    -28.2591317 -0.514895E-06  0.490E-03    0.88       4.9  T
   7    -28.2591320 -0.209012E-06  0.208E-03    0.88      11.6  T
   8    -28.2591320 -0.476846E-07  0.697E-04    0.88      34.8  T
   9    -28.2591320 -0.153504E-08  0.403E-04    0.88      60.2  T
     SCC iter.                  ...        0 min,  1.765 sec
     gradient                   ...        0 min,  0.138 sec
 * total energy  :   -27.9748823 Eh     change       -0.1389330E-02 Eh
   gradient norm :     0.0222918 Eh/α   predicted    -0.9854196E-03 ( -29.07%)
   displ. norm   :     0.2307476 α      lambda       -0.1827852E-02
   maximum displ.:     0.1129117 α      in ANC's #8, #5, #1, ...

........................................................................
.............................. CYCLE   13 ..............................
........................................................................

 iter      E             dE          RMSdq      gap      omega  full diag
   1    -28.2574506 -0.282575E+02  0.172E-01    0.82       0.0  T
   2    -28.2574892 -0.385890E-04  0.106E-01    0.80       1.0  T
   3    -28.2575449 -0.557118E-04  0.659E-02    0.81       1.0  T
   4    -28.2575626 -0.177609E-04  0.202E-02    0.81       1.2  T
   5    -28.2575649 -0.222171E-05  0.902E-03    0.81       2.7  T
   6    -28.2575656 -0.713252E-06  0.406E-03    0.81       6.0  T
   7    -28.2575656 -0.724431E-07  0.219E-03    0.81      11.1  T
   8    -28.2575657 -0.711036E-07  0.679E-04    0.81      35.7  T
   9    -28.2575657 -0.251503E-08  0.327E-04    0.81      74.1  T
     SCC iter.                  ...        0 min,  1.413 sec
     gradient                   ...        0 min,  0.194 sec
 * total energy  :   -27.9762875 Eh     change       -0.1405232E-02 Eh
   gradient norm :     0.0252317 Eh/α   predicted    -0.9625886E-03 ( -31.50%)
   displ. norm   :     0.2982194 α      lambda       -0.2336378E-02
   maximum displ.:     0.1528385 α      in ANC's #5, #8, #1, ...

........................................................................
.............................. CYCLE   14 ..............................
........................................................................

 iter      E             dE          RMSdq      gap      omega  full diag
   1    -28.2558915 -0.282559E+02  0.177E-01    0.76       0.0  T
   2    -28.2559360 -0.444804E-04  0.110E-01    0.74       1.0  T
   3    -28.2559878 -0.517739E-04  0.702E-02    0.75       1.0  T
   4    -28.2560107 -0.229498E-04  0.215E-02    0.75       1.1  T
   5    -28.2560128 -0.211512E-05  0.862E-03    0.75       2.8  T
   6    -28.2560135 -0.659634E-06  0.399E-03    0.75       6.1  T
   7    -28.2560136 -0.591542E-07  0.132E-03    0.75      18.4  T
   8    -28.2560136 -0.189771E-07  0.721E-04    0.75      33.6  T
   9    -28.2560136 -0.418496E-08  0.287E-04    0.75      84.5  T
     SCC iter.                  ...        0 min,  1.526 sec
     gradient                   ...        0 min,  0.161 sec
 * total energy  :   -27.9780982 Eh     change       -0.1810629E-02 Eh
   gradient norm :     0.0305148 Eh/α   predicted    -0.1272081E-02 ( -29.74%)
   displ. norm   :     0.3600759 α      lambda       -0.2844139E-02
   maximum displ.:     0.1975830 α      in ANC's #5, #6, #1, ...

........................................................................
.............................. CYCLE   15 ..............................
........................................................................

 iter      E             dE          RMSdq      gap      omega  full diag
   1    -28.2556548 -0.282557E+02  0.177E-01    0.71       0.0  T
   2    -28.2556919 -0.371503E-04  0.111E-01    0.70       1.0  T
   3    -28.2556928 -0.889757E-06  0.755E-02    0.71       1.0  T
   4    -28.2557484 -0.556255E-04  0.279E-02    0.71       1.0  T
   5    -28.2557548 -0.641183E-05  0.110E-02    0.70       2.2  T
   6    -28.2557560 -0.112609E-05  0.496E-03    0.70       4.9  T
   7    -28.2557561 -0.121199E-06  0.260E-03    0.70       9.3  T
   8    -28.2557561 -0.614251E-07  0.818E-04    0.70      29.6  T
   9    -28.2557561 -0.971646E-09  0.300E-04    0.70      80.9  T
     SCC iter.                  ...        0 min,  2.220 sec
     gradient                   ...        0 min,  0.147 sec
 * total energy  :   -27.9802935 Eh     change       -0.2195359E-02 Eh
   gradient norm :     0.0351231 Eh/α   predicted    -0.1606453E-02 ( -26.83%)
   displ. norm   :     0.3807079 α      lambda       -0.3078602E-02
   maximum displ.:     0.2176574 α      in ANC's #5, #6, #9, ...

........................................................................
.............................. CYCLE   16 ..............................
........................................................................

 iter      E             dE          RMSdq      gap      omega  full diag
   1    -28.2579704 -0.282580E+02  0.199E-01    0.69       0.0  T
   2    -28.2579691  0.133616E-05  0.137E-01    0.68       1.0  T
   3    -28.2579836 -0.145201E-04  0.933E-02    0.69       1.0  T
   4    -28.2580816 -0.979540E-04  0.263E-02    0.69       1.0  T
   5    -28.2580868 -0.520745E-05  0.990E-03    0.69       2.5  T
   6    -28.2580874 -0.603802E-06  0.413E-03    0.69       5.9  T
   7    -28.2580874 -0.575681E-07  0.162E-03    0.69      14.9  T
   8    -28.2580874 -0.137278E-08  0.984E-04    0.69      24.6  T
   9    -28.2580874 -0.312595E-08  0.388E-04    0.69      62.5  T
     SCC iter.                  ...        0 min,  1.057 sec
     gradient                   ...        0 min,  0.141 sec
 * total energy  :   -27.9826422 Eh     change       -0.2348684E-02 Eh
   gradient norm :     0.0346636 Eh/α   predicted    -0.1762402E-02 ( -24.96%)
   displ. norm   :     0.3582590 α      lambda       -0.2974490E-02
   maximum displ.:     0.2097318 α      in ANC's #5, #6, #9, ...

........................................................................
.............................. CYCLE   17 ..............................
........................................................................

 iter      E             dE          RMSdq      gap      omega  full diag
   1    -28.2631492 -0.282631E+02  0.213E-01    0.69       0.0  T
   2    -28.2631265  0.226915E-04  0.152E-01    0.69       1.0  T
   3    -28.2632165 -0.899576E-04  0.939E-02    0.69       1.0  T
   4    -28.2632813 -0.648091E-04  0.257E-02    0.69       1.0  T
   5    -28.2632867 -0.542993E-05  0.129E-02    0.69       1.9  T
   6    -28.2632873 -0.621173E-06  0.521E-03    0.69       4.7  T
   7    -28.2632876 -0.245339E-06  0.289E-03    0.69       8.4  T
   8    -28.2632876 -0.325446E-07  0.158E-03    0.69      15.4  T
   9    -28.2632876 -0.527410E-08  0.498E-04    0.69      48.7  T
  10    -28.2632876 -0.134695E-08  0.207E-04    0.69     117.0  T
     SCC iter.                  ...        0 min,  1.066 sec
     gradient                   ...        0 min,  0.204 sec
 * total energy  :   -27.9848604 Eh     change       -0.2218216E-02 Eh
   gradient norm :     0.0290769 Eh/α   predicted    -0.1678132E-02 ( -24.35%)
   displ. norm   :     0.3274334 α      lambda       -0.2411450E-02
   maximum displ.:     0.1922444 α      in ANC's #5, #6, #9, ...

........................................................................
.............................. CYCLE   18 ..............................
........................................................................

 iter      E             dE          RMSdq      gap      omega  full diag
   1    -28.2683529 -0.282684E+02  0.177E-01    0.69       0.0  T
   2    -28.2683447  0.815881E-05  0.123E-01    0.69       1.0  T
   3    -28.2683830 -0.383144E-04  0.784E-02    0.69       1.0  T
   4    -28.2684282 -0.451567E-04  0.222E-02    0.69       1.1  T
   5    -28.2684328 -0.458255E-05  0.120E-02    0.69       2.0  T
   6    -28.2684332 -0.448358E-06  0.488E-03    0.69       5.0  T
   7    -28.2684334 -0.229972E-06  0.268E-03    0.69       9.0  T
   8    -28.2684335 -0.176987E-07  0.999E-04    0.69      24.3  T
   9    -28.2684335 -0.161618E-08  0.282E-04    0.69      86.0  T
     SCC iter.                  ...        0 min,  2.905 sec
     gradient                   ...        0 min,  0.216 sec
 * total energy  :   -27.9866263 Eh     change       -0.1765917E-02 Eh
   gradient norm :     0.0271897 Eh/α   predicted    -0.1334994E-02 ( -24.40%)
   displ. norm   :     0.3019671 α      lambda       -0.1782418E-02
   maximum displ.:     0.1774747 α      in ANC's #5, #6, #9, ...

........................................................................
.............................. CYCLE   19 ..............................
........................................................................

 iter      E             dE          RMSdq      gap      omega  full diag
   1    -28.2704718 -0.282705E+02  0.136E-01    0.68       0.0  T
   2    -28.2704794 -0.757678E-05  0.853E-02    0.67       1.0  T
   3    -28.2704444  0.350001E-04  0.572E-02    0.68       1.0  T
   4    -28.2704919 -0.475099E-04  0.178E-02    0.68       1.4  T
   5    -28.2704953 -0.336735E-05  0.862E-03    0.68       2.8  T
   6    -28.2704955 -0.287822E-06  0.364E-03    0.68       6.7  T
   7    -28.2704956 -0.554270E-07  0.220E-03    0.68      11.0  T
   8    -28.2704956 -0.704727E-08  0.134E-03    0.68      18.1  T
   9    -28.2704956 -0.741153E-08  0.405E-04    0.68      59.9  T
  10    -28.2704956 -0.141331E-08  0.158E-04    0.68     153.5  T
     SCC iter.                  ...        0 min,  5.707 sec
     gradient                   ...        0 min,  0.218 sec
 * total energy  :   -27.9879482 Eh     change       -0.1321823E-02 Eh
   gradient norm :     0.0281440 Eh/α   predicted    -0.9724692E-03 ( -26.43%)
   displ. norm   :     0.2896263 α      lambda       -0.1560285E-02
   maximum displ.:     0.1672653 α      in ANC's #5, #6, #17, ...

........................................................................
.............................. CYCLE   20 ..............................
........................................................................

 iter      E             dE          RMSdq      gap      omega  full diag
   1    -28.2699885 -0.282700E+02  0.129E-01    0.67       0.0  T
   2    -28.2700022 -0.136377E-04  0.778E-02    0.66       1.0  T
   3    -28.2699912  0.109304E-04  0.583E-02    0.67       1.0  T
   4    -28.2700153 -0.240792E-04  0.122E-02    0.66       2.0  T
   5    -28.2700160 -0.716400E-06  0.681E-03    0.66       3.6  T
   6    -28.2700161 -0.114889E-06  0.340E-03    0.66       7.1  T
   7    -28.2700162 -0.419232E-07  0.201E-03    0.66      12.1  T
   8    -28.2700162 -0.336952E-07  0.105E-03    0.66      23.0  T
   9    -28.2700162 -0.537574E-08  0.343E-04    0.66      70.6  T
  10    -28.2700162 -0.101169E-08  0.131E-04    0.66     184.5  T
     SCC iter.                  ...        0 min,  1.079 sec
     gradient                   ...        0 min,  0.165 sec
 * total energy  :   -27.9891144 Eh     change       -0.1166244E-02 Eh
   gradient norm :     0.0297318 Eh/α   predicted    -0.8455833E-03 ( -27.50%)
   displ. norm   :     0.2375009 α      lambda       -0.1556729E-02
   maximum displ.:     0.1341880 α      in ANC's #5, #6, #17, ...
 * RMSD in coord.:     0.9891818 α      energy gain  -0.1525956E+01 Eh

generating ANC from exact Hessian ...
Using Lindh-Hessian (1995)
 Shifting diagonal of input Hessian by    7.9395863020435883E-003
 Lowest  eigenvalues of input Hessian
    0.000000    0.000000    0.000000    0.000000    0.000000    0.000000
    0.010000    0.011818    0.012938    0.015339    0.017444    0.018995
    0.020497    0.028374    0.032930    0.042213    0.050544    0.069379
 Highest eigenvalues
    1.599342    1.775773    1.897246    1.988371    2.323073    3.706509


........................................................................
.............................. CYCLE   21 ..............................
........................................................................

 iter      E             dE          RMSdq      gap      omega  full diag
   1    -28.2692341 -0.282692E+02  0.142E-01    0.68       0.0  T
   2    -28.2692418 -0.778259E-05  0.867E-02    0.67       1.0  T
   3    -28.2692528 -0.110103E-04  0.677E-02    0.68       1.0  T
   4    -28.2692886 -0.357317E-04  0.181E-02    0.68       1.3  T
   5    -28.2692914 -0.278788E-05  0.104E-02    0.68       2.3  T
   6    -28.2692924 -0.100358E-05  0.385E-03    0.68       6.3  T
   7    -28.2692924 -0.138743E-07  0.178E-03    0.68      13.6  T
   8    -28.2692924 -0.167410E-07  0.931E-04    0.68      26.1  T
   9    -28.2692924 -0.137884E-08  0.249E-04    0.68      97.3  T
     SCC iter.                  ...        0 min,  0.995 sec
     gradient                   ...        0 min,  0.212 sec
 * total energy  :   -27.9901488 Eh     change       -0.1034393E-02 Eh
   gradient norm :     0.0218434 Eh/α   predicted     0.0000000E+00 (-100.00%)
   displ. norm   :     0.3683736 α      lambda       -0.3652785E-02
   maximum displ.:     0.2295280 α      in ANC's #1, #2, #10, ...

........................................................................
.............................. CYCLE   22 ..............................
........................................................................

 iter      E             dE          RMSdq      gap      omega  full diag
   1    -28.2710871 -0.282711E+02  0.213E-01    0.63       0.0  T
   2    -28.2711188 -0.316820E-04  0.120E-01    0.65       1.0  T
   3    -28.2710975  0.212356E-04  0.616E-02    0.62       1.0  T
   4    -28.2711302 -0.326953E-04  0.179E-02    0.64       1.4  T
   5    -28.2711308 -0.598791E-06  0.133E-02    0.64       1.8  T
   6    -28.2711324 -0.154487E-05  0.451E-03    0.64       5.4  T
   7    -28.2711324 -0.531447E-07  0.238E-03    0.64      10.2  T
   8    -28.2711324 -0.218676E-07  0.153E-03    0.64      15.9  T
   9    -28.2711325 -0.155567E-07  0.381E-04    0.64      63.7  T
  10    -28.2711325 -0.830788E-09  0.195E-04    0.64     124.3  T
     SCC iter.                  ...        0 min,  0.979 sec
     gradient                   ...        0 min,  0.186 sec
 * total energy  :   -27.9925392 Eh     change       -0.2390356E-02 Eh
   gradient norm :     0.0127446 Eh/α   predicted    -0.2074236E-02 ( -13.22%)
   displ. norm   :     0.3684655 α      lambda       -0.1936262E-02
   maximum displ.:     0.2771524 α      in ANC's #1, #10, #2, ...

........................................................................
.............................. CYCLE   23 ..............................
........................................................................

 iter      E             dE          RMSdq      gap      omega  full diag
   1    -28.2706293 -0.282706E+02  0.265E-01    0.58       0.0  T
   2    -28.2706920 -0.626639E-04  0.197E-01    0.62       1.0  T
   3    -28.2709242 -0.232256E-03  0.845E-02    0.60       1.0  T
   4    -28.2709406 -0.163605E-04  0.323E-02    0.60       1.0  T
   5    -28.2709480 -0.740425E-05  0.186E-02    0.60       1.3  T
   6    -28.2709499 -0.195073E-05  0.827E-03    0.60       2.9  T
   7    -28.2709507 -0.761187E-06  0.267E-03    0.60       9.1  T
   8    -28.2709507 -0.468304E-07  0.144E-03    0.60      16.8  T
   9    -28.2709507  0.590017E-09  0.697E-04    0.60      34.8  T
  10    -28.2709508 -0.356463E-08  0.193E-04    0.60     125.3  T
     SCC iter.                  ...        0 min,  1.120 sec
     gradient                   ...        0 min,  0.160 sec
 * total energy  :   -27.9937642 Eh     change       -0.1225043E-02 Eh
   gradient norm :     0.0172729 Eh/α   predicted    -0.1099582E-02 ( -10.24%)
   displ. norm   :     0.2701543 α      lambda       -0.8491662E-03
   maximum displ.:     0.2392310 α      in ANC's #1, #10, #2, ...

........................................................................
.............................. CYCLE   24 ..............................
........................................................................

 iter      E             dE          RMSdq      gap      omega  full diag
   1    -28.2718880 -0.282719E+02  0.119E-01    0.58       0.0  T
   2    -28.2718951 -0.712266E-05  0.669E-02    0.59       1.0  T
   3    -28.2718928  0.231611E-05  0.528E-02    0.58       1.0  T
   4    -28.2719191 -0.262634E-04  0.189E-02    0.58       1.3  T
   5    -28.2719230 -0.391039E-05  0.736E-03    0.59       3.3  T
   6    -28.2719231 -0.146761E-06  0.285E-03    0.59       8.5  T
   7    -28.2719232 -0.200864E-07  0.184E-03    0.59      13.2  T
   8    -28.2719232 -0.185417E-07  0.762E-04    0.59      31.8  T
   9    -28.2719232 -0.524324E-09  0.305E-04    0.59      79.6  T
     SCC iter.                  ...        0 min,  1.628 sec
     gradient                   ...        0 min,  0.137 sec
 * total energy  :   -27.9944416 Eh     change       -0.6773928E-03 Eh
   gradient norm :     0.0143472 Eh/α   predicted    -0.4555747E-03 ( -32.75%)
   displ. norm   :     0.3182894 α      lambda       -0.8479339E-03
   maximum displ.:     0.2797380 α      in ANC's #1, #5, #3, ...

........................................................................
.............................. CYCLE   25 ..............................
........................................................................

 iter      E             dE          RMSdq      gap      omega  full diag
   1    -28.2744793 -0.282745E+02  0.140E-01    0.58       0.0  T
   2    -28.2744918 -0.125406E-04  0.805E-02    0.59       1.0  T
   3    -28.2744948 -0.299740E-05  0.597E-02    0.58       1.0  T
   4    -28.2745164 -0.215817E-04  0.188E-02    0.58       1.3  T
   5    -28.2745199 -0.348441E-05  0.929E-03    0.59       2.6  T
   6    -28.2745205 -0.566388E-06  0.407E-03    0.59       6.0  T
   7    -28.2745205 -0.708583E-07  0.226E-03    0.59      10.7  T
   8    -28.2745206 -0.327209E-07  0.102E-03    0.59      23.8  T
   9    -28.2745206 -0.762213E-09  0.348E-04    0.59      69.6  T
  10    -28.2745206 -0.951577E-09  0.126E-04    0.59     192.0  T
     SCC iter.                  ...        0 min,  1.130 sec
     gradient                   ...        0 min,  0.083 sec
 * total energy  :   -27.9950578 Eh     change       -0.6162149E-03 Eh
   gradient norm :     0.0081785 Eh/α   predicted    -0.4669184E-03 ( -24.23%)
   displ. norm   :     0.2897264 α      lambda       -0.4269569E-03
   maximum displ.:     0.2579445 α      in ANC's #1, #5, #3, ...

........................................................................
.............................. CYCLE   26 ..............................
........................................................................

 iter      E             dE          RMSdq      gap      omega  full diag
   1    -28.2750943 -0.282751E+02  0.124E-01    0.56       0.0  T
   2    -28.2751074 -0.131072E-04  0.637E-02    0.58       1.0  T
   3    -28.2751047  0.269262E-05  0.533E-02    0.57       1.0  T
   4    -28.2751275 -0.228047E-04  0.198E-02    0.57       1.2  T
   5    -28.2751326 -0.513965E-05  0.751E-03    0.57       3.2  T
   6    -28.2751328 -0.147707E-06  0.258E-03    0.57       9.4  T
   7    -28.2751328 -0.283097E-07  0.144E-03    0.57      16.9  T
   8    -28.2751328 -0.587335E-08  0.706E-04    0.57      34.3  T
   9    -28.2751328 -0.631832E-09  0.340E-04    0.57      71.4  T
     SCC iter.                  ...        0 min,  0.823 sec
     gradient                   ...        0 min,  0.210 sec
 * total energy  :   -27.9953715 Eh     change       -0.3137312E-03 Eh
   gradient norm :     0.0059469 Eh/α   predicted    -0.2313998E-03 ( -26.24%)
   displ. norm   :     0.2344473 α      lambda       -0.2494259E-03
   maximum displ.:     0.2092683 α      in ANC's #1, #4, #3, ...

........................................................................
.............................. CYCLE   27 ..............................
........................................................................

 iter      E             dE          RMSdq      gap      omega  full diag
   1    -28.2759641 -0.282760E+02  0.996E-02    0.56       0.0  T
   2    -28.2759698 -0.568916E-05  0.507E-02    0.57       1.0  T
   3    -28.2759624  0.733018E-05  0.442E-02    0.56       1.0  T
   4    -28.2759805 -0.180511E-04  0.138E-02    0.56       1.8  T
   5    -28.2759827 -0.224083E-05  0.622E-03    0.56       3.9  T
   6    -28.2759829 -0.182690E-06  0.221E-03    0.56      11.0  T
   7    -28.2759829 -0.213658E-07  0.119E-03    0.56      20.3  T
   8    -28.2759829 -0.553716E-08  0.587E-04    0.56      41.3  T
   9    -28.2759829 -0.279865E-09  0.257E-04    0.56      94.4  T
     SCC iter.                  ...        0 min,  0.844 sec
     gradient                   ...        0 min,  0.180 sec
 * total energy  :   -27.9955473 Eh     change       -0.1757243E-03 Eh
   gradient norm :     0.0041652 Eh/α   predicted    -0.1315707E-03 ( -25.13%)
   displ. norm   :     0.1739211 α      lambda       -0.1167839E-03
   maximum displ.:     0.1475469 α      in ANC's #1, #3, #4, ...

........................................................................
.............................. CYCLE   28 ..............................
........................................................................

 iter      E             dE          RMSdq      gap      omega  full diag
   1    -28.2760109 -0.282760E+02  0.723E-02    0.55       0.0  T
   2    -28.2760143 -0.338387E-05  0.360E-02    0.56       1.0  T
   3    -28.2760106  0.374072E-05  0.315E-02    0.55       1.0  T
   4    -28.2760193 -0.878040E-05  0.100E-02    0.55       2.4  T
   5    -28.2760206 -0.125594E-05  0.451E-03    0.56       5.4  T
   6    -28.2760207 -0.988394E-07  0.140E-03    0.56      17.3  T
   7    -28.2760207 -0.769215E-08  0.768E-04    0.56      31.6  T
   8    -28.2760207 -0.149655E-08  0.405E-04    0.56      59.9  T
     SCC iter.                  ...        0 min,  2.704 sec
     gradient                   ...        0 min,  0.081 sec
 * total energy  :   -27.9956203 Eh     change       -0.7301785E-04 Eh
   gradient norm :     0.0030316 Eh/α   predicted    -0.6015823E-04 ( -17.61%)
   displ. norm   :     0.0585017 α      lambda       -0.3718537E-04
   maximum displ.:     0.0380511 α      in ANC's #1, #3, #4, ...

........................................................................
.............................. CYCLE   29 ..............................
........................................................................

 iter      E             dE          RMSdq      gap      omega  full diag
   1    -28.2765912 -0.282766E+02  0.281E-02    0.55       0.0  T
   2    -28.2765922 -0.985304E-06  0.211E-02    0.55       1.1  T
   3    -28.2765940 -0.178056E-05  0.107E-02    0.55       2.3  T
   4    -28.2765941 -0.125541E-06  0.285E-03    0.55       8.5  T
   5    -28.2765942 -0.538493E-07  0.103E-03    0.55      23.5  T
   6    -28.2765942 -0.328366E-08  0.505E-04    0.55      48.0  T
   7    -28.2765942 -0.113957E-08  0.279E-04    0.55      87.0  T
     SCC iter.                  ...        0 min,  1.240 sec
     gradient                   ...        0 min,  0.002 sec
 * total energy  :   -27.9956415 Eh     change       -0.2124377E-04 Eh
   gradient norm :     0.0021558 Eh/α   predicted    -0.1865537E-04 ( -12.18%)
   displ. norm   :     0.0473934 α      lambda       -0.1926410E-04
   maximum displ.:     0.0261955 α      in ANC's #3, #4, #1, ...

........................................................................
.............................. CYCLE   30 ..............................
........................................................................

 iter      E             dE          RMSdq      gap      omega  full diag
   1    -28.2761851 -0.282762E+02  0.227E-02    0.55       0.0  T
   2    -28.2761856 -0.488260E-06  0.167E-02    0.55       1.5  T
   3    -28.2761868 -0.121918E-05  0.848E-03    0.55       2.9  T
   4    -28.2761869 -0.106952E-06  0.219E-03    0.55      11.1  T
   5    -28.2761869 -0.277978E-07  0.123E-03    0.55      19.7  T
   6    -28.2761870 -0.106018E-07  0.597E-04    0.55      40.6  T
   7    -28.2761870 -0.424810E-08  0.238E-04    0.55     101.8  T
     SCC iter.                  ...        0 min,  0.666 sec
     gradient                   ...        0 min,  0.002 sec
 * total energy  :   -27.9956539 Eh     change       -0.1241269E-04 Eh
   gradient norm :     0.0016681 Eh/α   predicted    -0.9654934E-05 ( -22.22%)
   displ. norm   :     0.0713256 α      lambda       -0.1580804E-04
   maximum displ.:     0.0412379 α      in ANC's #3, #5, #4, ...

........................................................................
.............................. CYCLE   31 ..............................
........................................................................

 iter      E             dE          RMSdq      gap      omega  full diag
   1    -28.2758780 -0.282759E+02  0.284E-02    0.55       0.0  T
   2    -28.2758788 -0.795813E-06  0.167E-02    0.54       1.4  T
   3    -28.2758787  0.124210E-06  0.113E-02    0.55       2.1  T
   4    -28.2758793 -0.614301E-06  0.454E-03    0.55       5.3  T
   5    -28.2758797 -0.397025E-06  0.927E-04    0.55      26.2  T
   6    -28.2758797 -0.415871E-08  0.408E-04    0.55      59.4  T
     SCC iter.                  ...        0 min,  0.703 sec
     gradient                   ...        0 min,  0.003 sec
 * total energy  :   -27.9956685 Eh     change       -0.1454820E-04 Eh
   gradient norm :     0.0022132 Eh/α   predicted    -0.7922870E-05 ( -45.54%)
   displ. norm   :     0.0474494 α      lambda       -0.1433123E-04
   maximum displ.:     0.0258742 α      in ANC's #4, #3, #5, ...

........................................................................
.............................. CYCLE   32 ..............................
........................................................................

 iter      E             dE          RMSdq      gap      omega  full diag
   1    -28.2758481 -0.282758E+02  0.188E-02    0.55       0.0  T
   2    -28.2758483 -0.197020E-06  0.138E-02    0.55       1.8  T
   3    -28.2758496 -0.126664E-05  0.676E-03    0.55       3.6  T
   4    -28.2758496 -0.585456E-07  0.145E-03    0.55      16.7  T
   5    -28.2758497 -0.270829E-07  0.651E-04    0.55      37.3  T
   6    -28.2758497 -0.430810E-08  0.222E-04    0.55     109.1  T
     SCC iter.                  ...        0 min,  0.324 sec
     gradient                   ...        0 min,  0.002 sec
 * total energy  :   -27.9956806 Eh     change       -0.1210402E-04 Eh
   gradient norm :     0.0022403 Eh/α   predicted    -0.7181053E-05 ( -40.67%)
   displ. norm   :     0.2067109 α      lambda       -0.5214963E-04
   maximum displ.:     0.1300311 α      in ANC's #3, #4, #5, ...

........................................................................
.............................. CYCLE   33 ..............................
........................................................................

 iter      E             dE          RMSdq      gap      omega  full diag
   1    -28.2750468 -0.282750E+02  0.647E-02    0.55       0.0  T
   2    -28.2750489 -0.208285E-05  0.386E-02    0.55       1.0  T
   3    -28.2750512 -0.237161E-05  0.291E-02    0.55       1.0  T
   4    -28.2750548 -0.358621E-05  0.535E-03    0.55       4.5  T
   5    -28.2750551 -0.277316E-06  0.318E-03    0.55       7.6  T
   6    -28.2750553 -0.160975E-06  0.879E-04    0.55      27.6  T
   7    -28.2750553 -0.276122E-08  0.409E-04    0.55      59.3  T
     SCC iter.                  ...        0 min,  0.273 sec
     gradient                   ...        0 min,  0.002 sec
 * total energy  :   -27.9957096 Eh     change       -0.2896001E-04 Eh
   gradient norm :     0.0044628 Eh/α   predicted    -0.2718888E-04 (  -6.12%)
   displ. norm   :     0.0655965 α      lambda       -0.3509466E-04
   maximum displ.:     0.0402193 α      in ANC's #4, #3, #6, ...

........................................................................
.............................. CYCLE   34 ..............................
........................................................................

 iter      E             dE          RMSdq      gap      omega  full diag
   1    -28.2759502 -0.282760E+02  0.253E-02    0.55       0.0  T
   2    -28.2759505 -0.362986E-06  0.157E-02    0.55       1.5  T
   3    -28.2759516 -0.107409E-05  0.106E-02    0.55       2.3  T
   4    -28.2759520 -0.376317E-06  0.250E-03    0.55       9.7  T
   5    -28.2759520 -0.542847E-07  0.146E-03    0.55      16.6  T
   6    -28.2759521 -0.309245E-07  0.479E-04    0.55      50.6  T
   7    -28.2759521 -0.826393E-09  0.175E-04    0.55     138.4  T
     SCC iter.                  ...        0 min,  0.309 sec
     gradient                   ...        0 min,  0.002 sec
 * total energy  :   -27.9957365 Eh     change       -0.2695446E-04 Eh
   gradient norm :     0.0033227 Eh/α   predicted    -0.1762152E-04 ( -34.62%)
   displ. norm   :     0.2433596 α      lambda       -0.7336990E-04
   maximum displ.:     0.1478334 α      in ANC's #3, #4, #6, ...

........................................................................
.............................. CYCLE   35 ..............................
........................................................................

 iter      E             dE          RMSdq      gap      omega  full diag
   1    -28.2757923 -0.282758E+02  0.740E-02    0.54       0.0  T
   2    -28.2757951 -0.284161E-05  0.486E-02    0.55       1.0  T
   3    -28.2758010 -0.589763E-05  0.324E-02    0.55       1.0  T
   4    -28.2758045 -0.354638E-05  0.376E-03    0.55       6.4  T
   5    -28.2758046 -0.190981E-07  0.248E-03    0.55       9.8  T
   6    -28.2758047 -0.103441E-06  0.105E-03    0.55      23.1  T
   7    -28.2758047 -0.619247E-08  0.400E-04    0.55      60.6  T
   8    -28.2758047 -0.994053E-09  0.165E-04    0.55     146.8  T
     SCC iter.                  ...        0 min,  0.377 sec
     gradient                   ...        0 min,  0.002 sec
 * total energy  :   -27.9957873 Eh     change       -0.5077663E-04 Eh
   gradient norm :     0.0049474 Eh/α   predicted    -0.3885604E-04 ( -23.48%)
   displ. norm   :     0.1775890 α      lambda       -0.1166725E-03
   maximum displ.:     0.0984750 α      in ANC's #3, #4, #6, ...

........................................................................
.............................. CYCLE   36 ..............................
........................................................................

 iter      E             dE          RMSdq      gap      omega  full diag
   1    -28.2777602 -0.282778E+02  0.606E-02    0.54       0.0  T
   2    -28.2777625 -0.227333E-05  0.367E-02    0.54       1.0  T
   3    -28.2777606  0.187315E-05  0.247E-02    0.54       1.0  T
   4    -28.2777647 -0.407302E-05  0.522E-03    0.54       4.6  T
   5    -28.2777649 -0.235376E-06  0.296E-03    0.54       8.2  T
   6    -28.2777650 -0.785580E-07  0.125E-03    0.54      19.4  T
   7    -28.2777650 -0.102277E-07  0.615E-04    0.54      39.4  T
   8    -28.2777650 -0.290791E-08  0.293E-04    0.54      82.8  T
     SCC iter.                  ...        0 min,  0.351 sec
     gradient                   ...        0 min,  0.002 sec
 * total energy  :   -27.9958451 Eh     change       -0.5781548E-04 Eh
   gradient norm :     0.0039523 Eh/α   predicted    -0.6017467E-04 (   4.08%)
   displ. norm   :     0.2380723 α      lambda       -0.6326471E-04
   maximum displ.:     0.1525970 α      in ANC's #3, #4, #6, ...

........................................................................
.............................. CYCLE   37 ..............................
........................................................................

 iter      E             dE          RMSdq      gap      omega  full diag
   1    -28.2753580 -0.282754E+02  0.666E-02    0.54       0.0  T
   2    -28.2753601 -0.208030E-05  0.391E-02    0.54       1.0  T
   3    -28.2753573  0.278454E-05  0.215E-02    0.54       1.1  T
   4    -28.2753607 -0.339654E-05  0.346E-03    0.54       7.0  T
   5    -28.2753608 -0.639744E-07  0.160E-03    0.54      15.2  T
   6    -28.2753608 -0.269777E-08  0.104E-03    0.54      23.3  T
   7    -28.2753608 -0.119561E-07  0.394E-04    0.54      61.5  T
   8    -28.2753608 -0.147831E-08  0.168E-04    0.54     144.7  T
     SCC iter.                  ...        0 min,  0.410 sec
     gradient                   ...        0 min,  0.002 sec
 * total energy  :   -27.9958398 Eh     change        0.5330125E-05 Eh
   gradient norm :     0.0081418 Eh/α   predicted    -0.3342373E-04 (-727.07%)
   displ. norm   :     0.0966472 α      lambda       -0.1436655E-03
   maximum displ.:     0.0581929 α      in ANC's #4, #3, #6, ...

........................................................................
.............................. CYCLE   38 ..............................
........................................................................

 iter      E             dE          RMSdq      gap      omega  full diag
   1    -28.2770526 -0.282771E+02  0.551E-02    0.54       0.0  T
   2    -28.2770568 -0.425209E-05  0.401E-02    0.53       1.0  T
   3    -28.2770653 -0.846650E-05  0.204E-02    0.54       1.2  T
   4    -28.2770661 -0.806625E-06  0.447E-03    0.54       5.4  T
   5    -28.2770661 -0.352816E-07  0.182E-03    0.54      13.3  T
   6    -28.2770662 -0.195141E-07  0.963E-04    0.54      25.2  T
   7    -28.2770662 -0.421240E-08  0.482E-04    0.54      50.4  T
     SCC iter.                  ...        0 min,  0.449 sec
     gradient                   ...        0 min,  0.002 sec
 * total energy  :   -27.9959143 Eh     change       -0.7449805E-04 Eh
   gradient norm :     0.0037886 Eh/α   predicted    -0.7250245E-04 (  -2.68%)
   displ. norm   :     0.0884697 α      lambda       -0.4528668E-04
   maximum displ.:     0.0612068 α      in ANC's #3, #2, #4, ...

........................................................................
.............................. CYCLE   39 ..............................
........................................................................

 iter      E             dE          RMSdq      gap      omega  full diag
   1    -28.2769688 -0.282770E+02  0.319E-02    0.53       0.0  T
   2    -28.2769697 -0.965025E-06  0.206E-02    0.53       1.2  T
   3    -28.2769715 -0.172813E-05  0.130E-02    0.53       1.9  T
   4    -28.2769720 -0.551280E-06  0.321E-03    0.53       7.5  T
   5    -28.2769720 -0.275922E-07  0.218E-03    0.53      11.1  T
   6    -28.2769721 -0.820791E-07  0.543E-04    0.53      44.7  T
   7    -28.2769721 -0.168637E-08  0.156E-04    0.53     155.8  T
     SCC iter.                  ...        0 min,  0.507 sec
     gradient                   ...        0 min,  0.071 sec
 * total energy  :   -27.9959524 Eh     change       -0.3809893E-04 Eh
   gradient norm :     0.0029637 Eh/α   predicted    -0.2282218E-04 ( -40.10%)
   displ. norm   :     0.3194858 α      lambda       -0.1134333E-03
   maximum displ.:     0.2244442 α      in ANC's #3, #4, #2, ...

........................................................................
.............................. CYCLE   40 ..............................
........................................................................

 iter      E             dE          RMSdq      gap      omega  full diag
   1    -28.2741739 -0.282742E+02  0.104E-01    0.53       0.0  T
   2    -28.2741827 -0.876047E-05  0.637E-02    0.53       1.0  T
   3    -28.2741925 -0.977549E-05  0.449E-02    0.53       1.0  T
   4    -28.2742005 -0.804328E-05  0.102E-02    0.53       2.4  T
   5    -28.2742009 -0.430188E-06  0.668E-03    0.53       3.6  T
   6    -28.2742017 -0.754595E-06  0.184E-03    0.53      13.2  T
   7    -28.2742017 -0.193738E-07  0.500E-04    0.53      48.5  T
   8    -28.2742017 -0.133993E-08  0.266E-04    0.53      91.3  T
     SCC iter.                  ...        0 min,  0.868 sec
     gradient                   ...        0 min,  0.157 sec
 * total energy  :   -27.9959859 Eh     change       -0.3357601E-04 Eh
   gradient norm :     0.0067964 Eh/α   predicted    -0.6250387E-04 (  86.16%)
   displ. norm   :     0.1051343 α      lambda       -0.9682149E-04
   maximum displ.:     0.0636624 α      in ANC's #3, #4, #2, ...

........................................................................
.............................. CYCLE   41 ..............................
........................................................................

 iter      E             dE          RMSdq      gap      omega  full diag
   1    -28.2764673 -0.282765E+02  0.376E-02    0.53       0.0  T
   2    -28.2764685 -0.126188E-05  0.212E-02    0.53       1.1  T
   3    -28.2764684  0.185092E-06  0.746E-03    0.53       3.3  T
   4    -28.2764686 -0.195894E-06  0.327E-03    0.53       7.4  T
   5    -28.2764687 -0.122653E-06  0.138E-03    0.53      17.5  T
   6    -28.2764687 -0.174888E-07  0.711E-04    0.53      34.1  T
   7    -28.2764687 -0.348215E-08  0.246E-04    0.53      98.6  T
     SCC iter.                  ...        0 min,  0.910 sec
     gradient                   ...        0 min,  0.228 sec
 * total energy  :   -27.9960275 Eh     change       -0.4151417E-04 Eh
   gradient norm :     0.0026115 Eh/α   predicted    -0.4894638E-04 (  17.90%)
   displ. norm   :     0.0793854 α      lambda       -0.3280148E-04
   maximum displ.:     0.0576542 α      in ANC's #3, #6, #2, ...

........................................................................
.............................. CYCLE   42 ..............................
........................................................................

 iter      E             dE          RMSdq      gap      omega  full diag
   1    -28.2764828 -0.282765E+02  0.274E-02    0.54       0.0  T
   2    -28.2764833 -0.565780E-06  0.173E-02    0.54       1.4  T
   3    -28.2764843 -0.997855E-06  0.115E-02    0.53       2.1  T
   4    -28.2764848 -0.456411E-06  0.193E-03    0.54      12.5  T
   5    -28.2764848  0.603116E-08  0.124E-03    0.54      19.5  T
   6    -28.2764848 -0.247306E-07  0.547E-04    0.54      44.3  T
   7    -28.2764848 -0.247611E-08  0.153E-04    0.54     158.5  T
     SCC iter.                  ...        0 min,  0.757 sec
     gradient                   ...        0 min,  0.140 sec
 * total energy  :   -27.9960580 Eh     change       -0.3057648E-04 Eh
   gradient norm :     0.0026597 Eh/α   predicted    -0.1650579E-04 ( -46.02%)
   displ. norm   :     0.4948434 α      lambda       -0.1912260E-03
   maximum displ.:     0.3545537 α      in ANC's #3, #6, #4, ...
 * RMSD in coord.:     0.6892372 α      energy gain  -0.6943621E-02 Eh

generating ANC from exact Hessian ...
Using Lindh-Hessian (1995)
 Shifting diagonal of input Hessian by    7.6262372526870320E-003
 Lowest  eigenvalues of input Hessian
    0.000000    0.000000    0.000000    0.000000    0.000000    0.000000
    0.010000    0.011406    0.012301    0.015168    0.016715    0.018319
    0.020213    0.026495    0.031693    0.041952    0.049775    0.064994
 Highest eigenvalues
    1.722810    1.802082    1.866820    1.917869    2.270971    3.608402


........................................................................
.............................. CYCLE   43 ..............................
........................................................................

 iter      E             dE          RMSdq      gap      omega  full diag
   1    -28.2715783 -0.282716E+02  0.169E-01    0.55       0.0  T
   2    -28.2715994 -0.210776E-04  0.101E-01    0.55       1.0  T
   3    -28.2716105 -0.111471E-04  0.740E-02    0.55       1.0  T
   4    -28.2716354 -0.249003E-04  0.134E-02    0.55       1.8  T
   5    -28.2716355 -0.621713E-07  0.890E-03    0.55       2.7  T
   6    -28.2716368 -0.128354E-05  0.366E-03    0.55       6.6  T
   7    -28.2716369 -0.891500E-07  0.110E-03    0.55      22.0  T
   8    -28.2716369 -0.591024E-08  0.497E-04    0.55      48.8  T
   9    -28.2716369 -0.681620E-09  0.173E-04    0.55     140.1  T
     SCC iter.                  ...        0 min,  1.011 sec
     gradient                   ...        0 min,  0.146 sec
 * total energy  :   -27.9959615 Eh     change        0.9652247E-04 Eh
   gradient norm :     0.0131531 Eh/α   predicted     0.0000000E+00 (-100.00%)
   displ. norm   :     0.0513505 α      lambda       -0.4296536E-03
   maximum displ.:     0.0196104 α      in ANC's #3, #5, #7, ...

........................................................................
.............................. CYCLE   44 ..............................
........................................................................

 iter      E             dE          RMSdq      gap      omega  full diag
   1    -28.2756369 -0.282756E+02  0.575E-02    0.55       0.0  T
   2    -28.2756414 -0.456272E-05  0.328E-02    0.55       1.0  T
   3    -28.2756399  0.150475E-05  0.233E-02    0.55       1.0  T
   4    -28.2756432 -0.325679E-05  0.608E-03    0.55       4.0  T
   5    -28.2756433 -0.127160E-06  0.307E-03    0.55       7.9  T
   6    -28.2756434 -0.870743E-07  0.136E-03    0.55      17.8  T
   7    -28.2756434 -0.136566E-07  0.383E-04    0.55      63.3  T
   8    -28.2756434 -0.359417E-09  0.229E-04    0.55     105.9  T
     SCC iter.                  ...        0 min,  0.956 sec
     gradient                   ...        0 min,  0.126 sec
 * total energy  :   -27.9962182 Eh     change       -0.2567085E-03 Eh
   gradient norm :     0.0036482 Eh/α   predicted    -0.2153917E-03 ( -16.09%)
   displ. norm   :     0.0412679 α      lambda       -0.4844721E-04
   maximum displ.:     0.0247023 α      in ANC's #3, #5, #7, ...

........................................................................
.............................. CYCLE   45 ..............................
........................................................................

 iter      E             dE          RMSdq      gap      omega  full diag
   1    -28.2768223 -0.282768E+02  0.227E-02    0.55       0.0  T
   2    -28.2768231 -0.786621E-06  0.146E-02    0.55       1.7  T
   3    -28.2768240 -0.923360E-06  0.902E-03    0.55       2.7  T
   4    -28.2768243 -0.294352E-06  0.280E-03    0.55       8.7  T
   5    -28.2768243  0.623385E-08  0.182E-03    0.55      13.3  T
   6    -28.2768243 -0.510336E-07  0.514E-04    0.55      47.2  T
   7    -28.2768243 -0.277026E-09  0.175E-04    0.55     138.9  T
     SCC iter.                  ...        0 min,  0.631 sec
     gradient                   ...        0 min,  0.168 sec
 * total energy  :   -27.9962517 Eh     change       -0.3349442E-04 Eh
   gradient norm :     0.0014666 Eh/α   predicted    -0.2426550E-04 ( -27.55%)
   displ. norm   :     0.1128226 α      lambda       -0.3930172E-04
   maximum displ.:     0.0807894 α      in ANC's #3, #7, #5, ...

........................................................................
.............................. CYCLE   46 ..............................
........................................................................

 iter      E             dE          RMSdq      gap      omega  full diag
   1    -28.2776331 -0.282776E+02  0.504E-02    0.54       0.0  T
   2    -28.2776362 -0.309333E-05  0.359E-02    0.54       1.0  T
   3    -28.2776446 -0.845450E-05  0.176E-02    0.54       1.4  T
   4    -28.2776452 -0.588483E-06  0.539E-03    0.54       4.5  T
   5    -28.2776452 -0.194820E-07  0.337E-03    0.54       7.2  T
   6    -28.2776454 -0.191071E-06  0.799E-04    0.54      30.4  T
   7    -28.2776454 -0.148707E-08  0.285E-04    0.54      85.1  T
     SCC iter.                  ...        0 min,  0.550 sec
     gradient                   ...        0 min,  0.173 sec
 * total energy  :   -27.9962945 Eh     change       -0.4277883E-04 Eh
   gradient norm :     0.0027303 Eh/α   predicted    -0.1976308E-04 ( -53.80%)
   displ. norm   :     0.1543519 α      lambda       -0.6417447E-04
   maximum displ.:     0.1168818 α      in ANC's #3, #7, #5, ...

........................................................................
.............................. CYCLE   47 ..............................
........................................................................

 iter      E             dE          RMSdq      gap      omega  full diag
   1    -28.2772801 -0.282773E+02  0.549E-02    0.54       0.0  T
   2    -28.2772828 -0.270826E-05  0.388E-02    0.54       1.0  T
   3    -28.2772903 -0.750607E-05  0.218E-02    0.54       1.1  T
   4    -28.2772913 -0.103936E-05  0.614E-03    0.54       3.9  T
   5    -28.2772914 -0.104599E-06  0.373E-03    0.54       6.5  T
   6    -28.2772917 -0.257019E-06  0.877E-04    0.54      27.7  T
   7    -28.2772917 -0.154859E-08  0.354E-04    0.54      68.6  T
     SCC iter.                  ...        0 min,  0.571 sec
     gradient                   ...        0 min,  0.188 sec
 * total energy  :   -27.9963476 Eh     change       -0.5313233E-04 Eh
   gradient norm :     0.0029046 Eh/α   predicted    -0.3285104E-04 ( -38.17%)
   displ. norm   :     0.1566337 α      lambda       -0.5583405E-04
   maximum displ.:     0.1199246 α      in ANC's #3, #7, #5, ...

........................................................................
.............................. CYCLE   48 ..............................
........................................................................

 iter      E             dE          RMSdq      gap      omega  full diag
   1    -28.2763372 -0.282763E+02  0.530E-02    0.53       0.0  T
   2    -28.2763394 -0.215470E-05  0.375E-02    0.53       1.0  T
   3    -28.2763462 -0.679329E-05  0.210E-02    0.53       1.2  T
   4    -28.2763471 -0.914799E-06  0.524E-03    0.53       4.6  T
   5    -28.2763473 -0.139730E-06  0.305E-03    0.53       8.0  T
   6    -28.2763474 -0.169413E-06  0.667E-04    0.53      36.3  T
   7    -28.2763474 -0.112064E-08  0.201E-04    0.53     120.5  T
     SCC iter.                  ...        0 min,  0.806 sec
     gradient                   ...        0 min,  0.138 sec
 * total energy  :   -27.9963850 Eh     change       -0.3737060E-04 Eh
   gradient norm :     0.0032963 Eh/α   predicted    -0.2860212E-04 ( -23.46%)
   displ. norm   :     0.0750054 α      lambda       -0.2761479E-04
   maximum displ.:     0.0595825 α      in ANC's #3, #7, #6, ...

........................................................................
.............................. CYCLE   49 ..............................
........................................................................

 iter      E             dE          RMSdq      gap      omega  full diag
   1    -28.2763326 -0.282763E+02  0.217E-02    0.53       0.0  T
   2    -28.2763327 -0.880346E-07  0.134E-02    0.53       1.8  T
   3    -28.2763322  0.421085E-06  0.961E-03    0.53       2.5  T
   4    -28.2763329 -0.666085E-06  0.133E-03    0.53      18.2  T
   5    -28.2763329  0.166580E-08  0.999E-04    0.53      24.3  T
   6    -28.2763329 -0.167297E-07  0.256E-04    0.53      94.9  T
     SCC iter.                  ...        0 min,  0.653 sec
     gradient                   ...        0 min,  0.143 sec
 * total energy  :   -27.9964073 Eh     change       -0.2228747E-04 Eh
   gradient norm :     0.0031804 Eh/α   predicted    -0.1388617E-04 ( -37.70%)
   displ. norm   :     0.1307212 α      lambda       -0.5030277E-04
   maximum displ.:     0.1053767 α      in ANC's #3, #7, #6, ...

........................................................................
.............................. CYCLE   50 ..............................
........................................................................

 iter      E             dE          RMSdq      gap      omega  full diag
   1    -28.2765650 -0.282766E+02  0.368E-02    0.54       0.0  T
   2    -28.2765652 -0.267469E-06  0.212E-02    0.54       1.1  T
   3    -28.2765647  0.521917E-06  0.865E-03    0.54       2.8  T
   4    -28.2765653 -0.609282E-06  0.214E-03    0.54      11.3  T
   5    -28.2765653 -0.171531E-07  0.894E-04    0.54      27.1  T
   6    -28.2765653 -0.370764E-08  0.547E-04    0.54      44.4  T
     SCC iter.                  ...        0 min,  0.790 sec
     gradient                   ...        0 min,  0.167 sec
 * total energy  :   -27.9964404 Eh     change       -0.3312781E-04 Eh
   gradient norm :     0.0032042 Eh/α   predicted    -0.2557974E-04 ( -22.78%)
   displ. norm   :     0.0827080 α      lambda       -0.2407486E-04
   maximum displ.:     0.0655455 α      in ANC's #3, #6, #7, ...

........................................................................
.............................. CYCLE   51 ..............................
........................................................................

 iter      E             dE          RMSdq      gap      omega  full diag
   1    -28.2767709 -0.282768E+02  0.266E-02    0.54       0.0  T
   2    -28.2767714 -0.500146E-06  0.161E-02    0.54       1.5  T
   3    -28.2767718 -0.409539E-06  0.114E-02    0.54       2.1  T
   4    -28.2767724 -0.554642E-06  0.184E-03    0.54      13.2  T
   5    -28.2767724 -0.309523E-08  0.636E-04    0.54      38.1  T
   6    -28.2767724 -0.275140E-09  0.277E-04    0.54      87.6  T
     SCC iter.                  ...        0 min,  0.617 sec
     gradient                   ...        0 min,  0.197 sec
 * total energy  :   -27.9964595 Eh     change       -0.1911558E-04 Eh
   gradient norm :     0.0032137 Eh/α   predicted    -0.1211935E-04 ( -36.60%)
   displ. norm   :     0.1527261 α      lambda       -0.3853851E-04
   maximum displ.:     0.1188331 α      in ANC's #3, #6, #4, ...

........................................................................
.............................. CYCLE   52 ..............................
........................................................................

 iter      E             dE          RMSdq      gap      omega  full diag
   1    -28.2765273 -0.282765E+02  0.507E-02    0.55       0.0  T
   2    -28.2765291 -0.178358E-05  0.314E-02    0.55       1.0  T
[...]
   maximum displ.:     0.0654493 α      in ANC's #3, #5, #6, ...

   *** GEOMETRY OPTIMIZATION CONVERGED AFTER 56 ITERATIONS ***

------------------------------------------------------------------------
 total energy gain   :        -1.5333589 Eh     -962.1972 kcal/mol
 total RMSD          :         1.4383992 a0        0.7612 Å
 total power (kW/mol):       -71.8898772 (step)  -54.6352 (real)
------------------------------------------------------------------------

 ANCopt (total)                0 d,  0 h,  1 min, 13.686 sec
 optimizer setup                ...        0 min,  0.000 sec (  0.001%)
 model hessian                  ...        0 min,  0.009 sec (  0.012%)
 ANC generation                 ...        0 min,  0.001 sec (  0.002%)
 coordinate transformation      ...        0 min,  0.001 sec (  0.001%)
 single point calculation       ...        1 min, 13.011 sec ( 99.085%)
 optimization log               ...        0 min,  0.011 sec (  0.015%)
 hessian update                 ...        0 min,  0.623 sec (  0.846%)
 rational function              ...        0 min,  0.012 sec (  0.016%)

================
 final structure:
================
17
 xtb: 6.7.1 (edcfbbe)
C           -2.63698419027343        0.55702923224676       -0.35370829374229
C           -1.35773528466331       -0.13342811952372       -0.09779337368374
C           -0.77541700187809       -1.28565720500652       -0.60419533361566
C            0.58985131455578       -1.22206351600360       -0.72183412059734
N            1.08036090620309        0.09404509091198       -0.50893404752605
C            2.39063544930635        0.24266590860825        0.09952057454612
N            0.14273378232291        0.97306873344919       -0.11739341926794
S           -0.50084663289450        0.53661395446074        1.81904668460212
O            0.26712466264633       -0.67338242654746        2.29053222807865
H           -2.70019427701876        1.44880121328833        0.26752704490354
H           -3.47014798799710       -0.10623543659537       -0.09931127250502
H           -2.74743913702055        0.85909044776037       -1.40371879722192
H           -1.34033137616442       -2.18917621275827       -0.78241789953251
H            1.29612628766892       -2.01223391958922       -0.90501753289641
H            2.39750759041894       -0.10212414883013        1.13818346591619
H            3.11606094289206       -0.33205154800273       -0.48078586489299
H            2.65954195189433        1.30021795212219        0.07600395744600

 Bond Distances (Angstroems)
 ---------------------------
C1-C2=1.4760         C1-H10=1.0887        C1-H11=1.0949        C1-H12=1.0982        C2-C1=1.4760         C2-C3=1.3868         
C2-N7=1.8644         C2-S8=2.2040         C3-C2=1.3868         C3-C4=1.3718         C3-H13=1.0804        C4-C3=1.3718         
C4-N5=1.4206         C4-H14=1.0755        N5-C4=1.4206         N5-C6=1.4523         N5-N7=1.3436         C6-N5=1.4523         
C6-H15=1.0944        C6-H16=1.0924        C6-H17=1.0915        N7-C2=1.8644         N7-N5=1.3436         N7-S8=2.0867         
S8-C2=2.2040         S8-N7=2.0867         S8-O9=1.5087         O9-S8=1.5087         H10-C1=1.0887        H11-C1=1.0949        
H12-C1=1.0982        H13-C3=1.0804        H14-C4=1.0755        H15-C6=1.0944        H16-C6=1.0924        H17-C6=1.0915        
 C  H  Rav=1.0895 sigma=0.0072  Rmin=1.0755  Rmax=1.0982     8
 C  C  Rav=1.4115 sigma=0.0460  Rmin=1.3718  Rmax=1.4760     3
 N  C  Rav=1.5791 sigma=0.2022  Rmin=1.4206  Rmax=1.8644     3
 N  N  Rav=1.3436 sigma=0.0000  Rmin=1.3436  Rmax=1.3436     1
 S  C  Rav=2.2040 sigma=0.0000  Rmin=2.2040  Rmax=2.2040     1
 S  N  Rav=2.0867 sigma=0.0000  Rmin=2.0867  Rmax=2.0867     1
 S  O  Rav=1.5087 sigma=0.0000  Rmin=1.5087  Rmax=1.5087     1

 selected bond angles (degree)
 --------------------
H10-C1-C2=109.55               H11-C1-C2=109.62               H11-C1-H10=108.63              H12-C1-C2=112.43               
H12-C1-H10=108.33              H12-C1-H11=108.19              C3-C2-C1=133.57                N7-C2-C1=114.71                
N7-C2-C3= 98.70                S8-C2-C1=110.21                S8-C2-C3=114.01                S8-C2-N7= 61.04                
C4-C3-C2=114.25                H13-C3-C2=122.38               H13-C3-C4=123.03               N5-C4-C3=111.95                
H14-C4-C3=129.35               H14-C4-N5=118.65               C6-N5-C4=117.98                N7-N5-C4=114.13                
N7-N5-C6=116.14                H15-C6-N5=111.78               H16-C6-N5=108.83               H16-C6-H15=109.53              
H17-C6-N5=108.20               H17-C6-H15=108.91              H17-C6-H16=109.56              N5-N7-C2=100.16                
S8-N7-C2= 67.54                S8-N7-N5=110.42                N7-S8-C2= 51.42                O9-S8-C2=103.05                
O9-S8-N7=107.50                

 selected dihedral angles (degree)
 ---------------------------------
C3-C2-C1-H10=180.15           C3-C2-C1-H11= 61.04           C3-C2-C1-H12=300.65           N7-C2-C1-H10=312.04           
N7-C2-C1-H11=192.93           N7-C2-C1-H12= 72.54           S8-C2-C1-H10= 18.56           S8-C2-C1-H11=259.45           
S8-C2-C1-H12=139.06           C4-C3-C2-C1=145.27            C4-C3-C2-N7=  8.44            C4-C3-C2-S8=306.34            
H13-C3-C2-C1=318.70           H13-C3-C2-N7=181.87           H13-C3-C2-S8=119.77           N5-C4-C3-C2=350.06            
N5-C4-C3-H13=176.67           H14-C4-C3-C2=167.36           H14-C4-C3-H13=353.98          C6-N5-C4-C3=147.57            
C6-N5-C4-H14=329.95           N7-N5-C4-C3=  5.88            N7-N5-C4-H14=188.26           H15-C6-N5-C4=293.08           
H15-C6-N5-N7= 74.02           H16-C6-N5-C4= 54.18           H16-C6-N5-N7=195.12           H17-C6-N5-C4=173.16           
H17-C6-N5-N7=314.09           C2-N7-N5-C4=359.53            C2-N7-N5-C6=217.11            S8-N7-N5-C4= 69.19            
S8-N7-N5-C6=286.77            N7-S8-C2-C1=252.22            N7-S8-C2-C3= 86.72            O9-S8-C2-C1=150.10            
O9-S8-C2-C3=344.60            O9-S8-C2-N7=257.88            C2-S8-N7-N5=267.15            O9-S8-N7-C2= 92.95            
O9-S8-N7-N5=  0.09            
           -------------------------------------------------
          |                Final Singlepoint                |
           -------------------------------------------------

          ...................................................
          :                      SETUP                      :
          :.................................................:
          :  # basis functions                  50          :
          :  # atomic orbitals                  49          :
          :  # shells                           27          :
          :  # electrons                        51          :
          :  max. iterations                   250          :
          :  Hamiltonian                  GFN2-xTB          :
          :  restarted?                      false          :
          :  GBSA solvation                  false          :
          :  PC potential                    false          :
          :  electronic temp.          300.0000000     K    :
          :  accuracy                    1.0000000          :
          :  -> integral cutoff          0.2500000E+02      :
          :  -> integral neglect         0.1000000E-07      :
          :  -> SCF convergence          0.1000000E-05 Eh   :
          :  -> wf. convergence          0.1000000E-03 e    :
          :  Broyden damping             0.4000000          :
          :  net charge                         -1          :
          :  unpaired electrons                  0          :
          ...................................................

 iter      E             dE          RMSdq      gap      omega  full diag
   1    -28.2768723 -0.282769E+02  0.136E-04    0.55       0.0  T
   2    -28.2768723 -0.333245E-11  0.906E-05    0.55     267.7  T
   3    -28.2768723 -0.355946E-10  0.640E-05    0.55     378.9  T

   *** convergence criteria satisfied after 3 iterations ***

         #    Occupation            Energy/Eh            Energy/eV
      -------------------------------------------------------------
         1        2.0000           -0.5160257             -14.0418
       ...           ...                  ...                  ...
        20        2.0000           -0.2677205              -7.2850
        21        2.0000           -0.2508520              -6.8260
        22        2.0000           -0.2261587              -6.1541
        23        2.0000           -0.2167965              -5.8993
        24        2.0000           -0.1874078              -5.0996
        25        2.0000           -0.1378762              -3.7518
        26        1.0000           -0.0734949              -1.9999 (HOMO)
        27        0.0000           -0.0533174              -1.4508 (LUMO)
        28                         -0.0144303              -0.3927
        29                          0.0227844               0.6200
        30                          0.0539800               1.4689
        31                          0.1937472               5.2721
       ...                                ...                  ...
        49                          0.9285100              25.2660
      -------------------------------------------------------------
                  HL-Gap            0.0201775 Eh            0.5491 eV
             Fermi-level           -0.0845459 Eh           -2.3006 eV

 SCC (total)                   0 d,  0 h,  0 min,  0.843 sec
 SCC setup                      ...        0 min,  0.024 sec (  2.895%)
 Dispersion                     ...        0 min,  0.035 sec (  4.159%)
 classical contributions        ...        0 min,  0.008 sec (  0.945%)
 integral evaluation            ...        0 min,  0.036 sec (  4.316%)
 iterations                     ...        0 min,  0.593 sec ( 70.326%)
 molecular gradient             ...        0 min,  0.146 sec ( 17.312%)
 printout                       ...        0 min,  0.000 sec (  0.045%)

         :::::::::::::::::::::::::::::::::::::::::::::::::::::
         ::                     SUMMARY                     ::
         :::::::::::::::::::::::::::::::::::::::::::::::::::::
         :: total energy             -27.996517288700 Eh    ::
         :: gradient norm              0.000634911747 Eh/a0 ::
         :: HOMO-LUMO gap              0.549057667768 eV    ::
         ::.................................................::
         :: SCC energy               -28.276822375915 Eh    ::
         :: -> isotropic ES            0.156030225303 Eh    ::
         :: -> anisotropic ES         -0.002131307376 Eh    ::
         :: -> anisotropic XC          0.014344682120 Eh    ::
         :: -> dispersion             -0.017063536553 Eh    ::
         :: repulsion energy           0.277704905179 Eh    ::
         :: add. restraining           0.002600182037 Eh    ::
         :: total charge              -1.000000000000 e     ::
         :::::::::::::::::::::::::::::::::::::::::::::::::::::

           -------------------------------------------------
          |                Property Printout                |
           -------------------------------------------------

    * Orbital Energies and Occupations

         #    Occupation            Energy/Eh            Energy/eV
      -------------------------------------------------------------
         1        2.0000           -0.5160257             -14.0418
       ...           ...                  ...                  ...
        14        2.0000           -0.3359798              -9.1425
        15        2.0000           -0.3213333              -8.7439
        16        2.0000           -0.2967822              -8.0759
        17        2.0000           -0.2905153              -7.9053
        18        2.0000           -0.2827638              -7.6944
        19        2.0000           -0.2751523              -7.4873
        20        2.0000           -0.2677205              -7.2850
        21        2.0000           -0.2508520              -6.8260
        22        2.0000           -0.2261587              -6.1541
        23        2.0000           -0.2167965              -5.8993
        24        2.0000           -0.1874078              -5.0996
        25        2.0000           -0.1378762              -3.7518
        26        1.0000           -0.0734949              -1.9999 (HOMO)
        27        0.0000           -0.0533174              -1.4508 (LUMO)
        28                         -0.0144303              -0.3927
        29                          0.0227844               0.6200
        30                          0.0539800               1.4689
        31                          0.1937472               5.2721
        32                          0.2126959               5.7877
        33                          0.2516547               6.8479
        34                          0.2675676               7.2809
        35                          0.2793981               7.6028
        36                          0.2890327               7.8650
        37                          0.3006424               8.1809
       ...                                ...                  ...
        49                          0.9285100              25.2660
      -------------------------------------------------------------
                  HL-Gap            0.0201775 Eh            0.5491 eV
             Fermi-level           -0.0845459 Eh           -2.3006 eV

     #   Z          covCN         q      C6AA      α(0)
     1   6 C        3.752    -0.076    22.021     6.692
     2   6 C        3.359     0.003    24.999     7.853
     3   6 C        2.910    -0.059    29.472     8.902
     4   6 C        2.887    -0.043    29.074     8.840
     5   7 N        2.824    -0.020    21.627     6.907
     6   6 C        3.696    -0.012    20.969     6.550
     7   7 N        2.394    -0.292    27.682     7.812
     8  16 S        2.380    -0.059   143.497    20.162
     9   8 O        0.859    -0.509    23.984     6.566
    10   1 H        0.925     0.036     2.503     2.474
    11   1 H        0.924     0.012     2.854     2.642
    12   1 H        0.923     0.004     2.986     2.702
    13   1 H        0.926    -0.022     3.473     2.914
    14   1 H        0.926    -0.034     3.732     3.021
    15   1 H        0.924     0.045     2.380     2.412
    16   1 H        0.924     0.005     2.976     2.698
    17   1 H        0.924     0.023     2.693     2.566

 Mol. C6AA /au·bohr⁶  :       4278.743358
 Mol. C8AA /au·bohr⁸  :     111612.266227
 Mol. α(0) /au        :        101.714781


Wiberg/Mayer (AO) data.
largest (>0.10) Wiberg bond orders for each atom

 ---------------------------------------------------------------------------
     #   Z sym  total        # sym  WBO       # sym  WBO       # sym  WBO
 ---------------------------------------------------------------------------
     1   6 C    3.998 --     2 C    1.039    10 H    0.981    11 H    0.972
                            12 H    0.972
     2   6 C    3.831 --     3 C    1.356     1 C    1.039     7 N    0.767
                             8 S    0.417     4 C    0.125
     3   6 C    3.969 --     4 C    1.494     2 C    1.356    13 H    0.954
     4   6 C    3.842 --     3 C    1.494     5 N    1.057    14 H    0.969
                             2 C    0.125
     5   7 N    3.449 --     7 N    1.178     4 C    1.057     6 C    0.990
                             8 S    0.124
     6   6 C    3.989 --     5 N    0.990    17 H    0.985    16 H    0.984
                            15 H    0.974
     7   7 N    2.929 --     5 N    1.178     2 C    0.767     8 S    0.717
                             9 O    0.114
     8  16 S    3.174 --     9 O    1.725     7 N    0.717     2 C    0.417
                             5 N    0.124
     9   8 O    1.963 --     8 S    1.725     7 N    0.114
    10   1 H    0.998 --     1 C    0.981
    11   1 H    0.999 --     1 C    0.972
    12   1 H    1.000 --     1 C    0.972
    13   1 H    0.999 --     3 C    0.954
    14   1 H    0.999 --     4 C    0.969
    15   1 H    0.998 --     6 C    0.974
    16   1 H    1.000 --     6 C    0.984
    17   1 H    0.999 --     6 C    0.985
 ---------------------------------------------------------------------------

Topologies differ in total number of bonds
Writing topology from bond orders to xtbtopo.mol

molecular dipole:
                 x           y           z       tot (Debye)
 q only:        0.069       0.573      -1.954
   full:        0.247       0.025      -2.060       5.273
molecular quadrupole (traceless):
                xx          xy          yy          xz          yz          zz
 q only:        6.975       0.447       2.028      -1.031       3.205      -9.003
  q+dip:        9.550       0.964       2.026      -0.214       2.924     -11.576
   full:        9.352       0.880       1.594      -0.065       2.754     -10.946

           -------------------------------------------------
          |                Geometry Summary                 |
           -------------------------------------------------

      molecular mass/u    :      144.1948042
   center of mass at/Å    :       -0.1175100      -0.0130413       0.4427389
  moments of inertia/u·Å² :        0.2672951E+03   0.3422981E+03   0.4539438E+03
rotational constants/cm⁻¹ :        0.6306749E-01   0.4924840E-01   0.3713595E-01

 * 14 selected distances

     #   Z          #   Z                                           value/Å
     1   6 C        2   6 C                                       1.4760427 (max)
     2   6 C        3   6 C                                       1.3867840
     3   6 C        4   6 C                                       1.3718021
     4   6 C        5   7 N                                       1.4205873
     5   7 N        6   6 C                                       1.4522827
     5   7 N        7   7 N                                       1.3435519
     1   6 C       10   1 H                                       1.0886626
     1   6 C       11   1 H                                       1.0948973
     1   6 C       12   1 H                                       1.0981637
     3   6 C       13   1 H                                       1.0803881
     4   6 C       14   1 H                                       1.0755231 (min)
     6   6 C       15   1 H                                       1.0944168
     6   6 C       16   1 H                                       1.0923818
     6   6 C       17   1 H                                       1.0914579

 * 4 distinct bonds (by element types)

   Z      Z             #   av. dist./Å        max./Å        min./Å
   1 H    6 C           8     1.0894864     1.0981637     1.0755231
   6 C    6 C           3     1.4115429     1.4760427     1.3718021
   6 C    7 N           2     1.4364350     1.4522827     1.4205873
   7 N    7 N           1     1.3435519     1.3435519     1.3435519


optimized geometry written to: xtbopt.xyz


           -------------------------------------------------
          | TOTAL ENERGY              -27.996517288700 Eh   |
          | GRADIENT NORM               0.000634911747 Eh/α |
          | HOMO-LUMO GAP               0.549057667768 eV   |
           -------------------------------------------------

------------------------------------------------------------------------
 * finished run on 2026/01/15 at 10:12:39.862     
------------------------------------------------------------------------
 total:
 * wall-time:     0 d,  0 h,  1 min, 15.958 sec
 *  cpu-time:     0 d,  0 h,  5 min,  1.613 sec
 * ratio c/w:     3.971 speedup
 SCF:
 * wall-time:     0 d,  0 h,  0 min,  1.257 sec
 *  cpu-time:     0 d,  0 h,  0 min,  7.615 sec
 * ratio c/w:     6.060 speedup
 ANC optimizer:
 * wall-time:     0 d,  0 h,  1 min, 14.538 sec
 *  cpu-time:     0 d,  0 h,  4 min, 53.482 sec
 * ratio c/w:     3.937 speedup

