      -----------------------------------------------------------      
     |                   =====================                   |     
     |                           x T B                           |     
     |                   =====================                   |     
     |                         S. Grimme                         |     
     |          Mulliken Center for Theoretical Chemistry        |     
     |                    University of Bonn                     |     
      -----------------------------------------------------------      

   * xtb version 6.7.1 (edcfbbe) compiled by 'conda@c0858423619e' on 2025-09-04

   xtb is free software: you can redistribute it and/or modify it under
   the terms of the GNU Lesser General Public License as published by
   the Free Software Foundation, either version 3 of the License, or
   (at your option) any later version.
   
   xtb is distributed in the hope that it will be useful,
   but WITHOUT ANY WARRANTY; without even the implied warranty of
   MERCHANTABILITY or FITNESS FOR A PARTICULAR PURPOSE.  See the
   GNU Lesser General Public License for more details.
   
   Cite this work as:
   * C. Bannwarth, E. Caldeweyher, S. Ehlert, A. Hansen, P. Pracht,
     J. Seibert, S. Spicher, S. Grimme, WIREs Comput. Mol. Sci., 2020, 11,
     e01493. DOI: 10.1002/wcms.1493
   
   for GFN2-xTB:
   * C. Bannwarth, S. Ehlert and S. Grimme., J. Chem. Theory Comput., 2019,
     15, 1652-1671. DOI: 10.1021/acs.jctc.8b01176
   for GFN1-xTB:
   * S. Grimme, C. Bannwarth, P. Shushkov, J. Chem. Theory Comput., 2017,
     13, 1989-2009. DOI: 10.1021/acs.jctc.7b00118
   for GFN0-xTB:
   * P. Pracht, E. Caldeweyher, S. Ehlert, S. Grimme, ChemRxiv, 2019, preprint.
     DOI: 10.26434/chemrxiv.8326202.v1
   for GFN-FF:
   * S. Spicher and S. Grimme, Angew. Chem. Int. Ed., 2020, 59, 15665-15673.
     DOI: 10.1002/anie.202004239
   
   for ALPB and GBSA implicit solvation:
   * S. Ehlert, M. Stahn, S. Spicher, S. Grimme, J. Chem. Theory Comput.,
     2021, 17, 4250-4261. DOI: 10.1021/acs.jctc.1c00471
   
   for ddCOSMO and CPCM-X implicit solvation:
   * M. Stahn, S. Ehlert, S. Grimme, J. Phys. Chem. A,
     2023, XX, XXXX-XXXX. DOI: 10.1021/acs.jpca.3c04382
   
   for DFT-D4:
   * E. Caldeweyher, C. Bannwarth and S. Grimme, J. Chem. Phys., 2017,
     147, 034112. DOI: 10.1063/1.4993215
   * E. Caldeweyher, S. Ehlert, A. Hansen, H. Neugebauer, S. Spicher,
     C. Bannwarth and S. Grimme, J. Chem. Phys., 2019, 150, 154122.
     DOI: 10.1063/1.5090222
   * E. Caldeweyher, J.-M. Mewes, S. Ehlert and S. Grimme, Phys. Chem. Chem. Phys.
     2020, 22, 8499-8512. DOI: 10.1039/D0CP00502A
   
   for sTDA-xTB:
   * S. Grimme and C. Bannwarth, J. Chem. Phys., 2016, 145, 054103.
     DOI: 10.1063/1.4959605
   
   in the mass-spec context:
   * V. Asgeirsson, C. Bauer and S. Grimme, Chem. Sci., 2017, 8, 4879.
     DOI: 10.1039/c7sc00601b
   * J. Koopman and S. Grimme, ACS Omega 2019, 4, 12, 15120-15133.
     DOI: 10.1021/acsomega.9b02011
   
   for metadynamics refer to:
   * S. Grimme, J. Chem. Theory Comput., 2019, 155, 2847-2862
     DOI: 10.1021/acs.jctc.9b00143
   
   for SPH calculations refer to:
   * S. Spicher and S. Grimme, J. Chem. Theory Comput., 2021, 17, 1701-1714
     DOI: 10.1021/acs.jctc.0c01306
   
   for ONIOM refer to:
   * C. Plett, A. Katbashev, S. Ehlert, S. Grimme, M. Bursch,
     Phys. Chem. Chem. Phys., 2023, 25, 17860-17868. DOI: 10.1039/D3CP02178E
   
   for DIPRO refer to:
   * J. Kohn, N. Gildemeister, S. Grimme, D. Fazzi, A. Hansen,
     J. Chem. Phys., 2023, just accepted.
   
   for PTB refer to:
   * S. Grimme, M. Mueller, A. Hansen, J. Chem. Phys., 2023, 158, 124111.
     DOI: 10.1063/5.0137838
   
   with help from (in alphabetical order)
   P. Atkinson, C. Bannwarth, F. Bohle, G. Brandenburg, E. Caldeweyher
   M. Checinski, S. Dohm, S. Ehlert, S. Ehrlich, I. Gerasimov, C. Hölzer
   A. Katbashev, J. Kohn, J. Koopman, C. Lavigne, S. Lehtola, F. März, M. Müller,
   F. Musil, H. Neugebauer, J. Pisarek, C. Plett, P. Pracht, F. Pultar,
   J. Seibert, P. Shushkov, S. Spicher, M. Stahn, M. Steiner, T. Strunk,
   J. Stückrath, T. Rose, and J. Unsleber
   
 * started run on 2026/01/15 at 11:05:12.984     
   ID    Z sym.   atoms
    1    6 C      1-4, 6
    2    7 N      5, 7
    3   16 S      8
    4    8 O      9
    5    1 H      10-17
constraining bond 8 2 to    2.2000000 Å, actual value:    1.8264235 Å
constraining bond 8 7 to    2.1000000 Å, actual value:    1.6843401 Å
constraining bond 2 7 to    1.9000000 Å, actual value:    2.6363598 Å

           -------------------------------------------------
          |                Calculation Setup                |
           -------------------------------------------------

          program call               : /h/28/cicsy/miniforge3/envs/elagente/bin/xtb N4-Me_TDSO_correct_opt.xyz --opt --gfn 2 -P 4 --chrg 0 --input detailed_input.inp
          coordinate file            : N4-Me_TDSO_correct_opt.xyz
          omp threads                :                     4


           -------------------------------------------------
          |                 G F N 2 - x T B                 |
           -------------------------------------------------

        Reference                      10.1021/acs.jctc.8b01176
      * Hamiltonian:
        H0-scaling (s, p, d)           1.850000    2.230000    2.230000
        zeta-weighting                 0.500000
      * Dispersion:
        s8                             2.700000
        a1                             0.520000
        a2                             5.000000
        s9                             5.000000
      * Repulsion:
        kExp                           1.500000    1.000000
        rExp                           1.000000
      * Coulomb:
        alpha                          2.000000
        third order                    shell-resolved
        anisotropic                    true
        a3                             3.000000
        a5                             4.000000
        cn-shift                       1.200000
        cn-exp                         4.000000
        max-rad                        5.000000


          ...................................................
          :                      SETUP                      :
          :.................................................:
          :  # basis functions                  50          :
          :  # atomic orbitals                  49          :
          :  # shells                           27          :
          :  # electrons                        50          :
          :  max. iterations                   250          :
          :  Hamiltonian                  GFN2-xTB          :
          :  restarted?                      false          :
          :  GBSA solvation                  false          :
          :  PC potential                    false          :
          :  electronic temp.          300.0000000     K    :
          :  accuracy                    1.0000000          :
          :  -> integral cutoff          0.2500000E+02      :
          :  -> integral neglect         0.1000000E-07      :
          :  -> SCF convergence          0.1000000E-05 Eh   :
          :  -> wf. convergence          0.1000000E-03 e    :
          :  Broyden damping             0.4000000          :
          :  net charge                          0          :
          :  unpaired electrons                  0          :
          ...................................................

 iter      E             dE          RMSdq      gap      omega  full diag
   1    -28.1038858 -0.281039E+02  0.459E+00    2.77       0.0  T
   2    -28.1801873 -0.763015E-01  0.306E+00    2.31       1.0  T
   3    -28.1745155  0.567182E-02  0.168E+00    2.31       1.0  T
   4    -28.1661760  0.833952E-02  0.152E+00    2.43       1.0  T
   5    -28.1928099 -0.266339E-01  0.283E-01    2.33       1.0  T
   6    -28.1929183 -0.108419E-03  0.148E-01    2.31       1.0  T
   7    -28.1931407 -0.222445E-03  0.690E-02    2.31       1.0  T
   8    -28.1931809 -0.402265E-04  0.264E-02    2.31       1.0  T
   9    -28.1931820 -0.105276E-05  0.157E-02    2.32       1.5  T
  10    -28.1931823 -0.346266E-06  0.428E-03    2.31       5.7  T
  11    -28.1931824 -0.994932E-07  0.194E-03    2.32      12.5  T
  12    -28.1931824 -0.139737E-08  0.588E-04    2.31      41.2  T
  13    -28.1931824 -0.148851E-08  0.151E-04    2.32     160.2  T

   *** convergence criteria satisfied after 13 iterations ***

         #    Occupation            Energy/Eh            Energy/eV
      -------------------------------------------------------------
         1        2.0000           -0.7347349             -19.9932
       ...           ...                  ...                  ...
        19        2.0000           -0.4657537             -12.6738
        20        2.0000           -0.4582727             -12.4702
        21        2.0000           -0.4354828             -11.8501
        22        2.0000           -0.4173018             -11.3554
        23        2.0000           -0.3769902             -10.2584
        24        2.0000           -0.3682143             -10.0196
        25        2.0000           -0.3611263              -9.8267 (HOMO)
        26                         -0.2760496              -7.5117 (LUMO)
        27                         -0.1842908              -5.0148
        28                         -0.1776429              -4.8339
        29                         -0.1182173              -3.2169
        30                         -0.0392471              -1.0680
       ...                                ...                  ...
        49                          0.9456166              25.7315
      -------------------------------------------------------------
                  HL-Gap            0.0850767 Eh            2.3151 eV
             Fermi-level           -0.3185880 Eh           -8.6692 eV

 SCC (total)                   0 d,  0 h,  0 min,  1.177 sec
 SCC setup                      ...        0 min,  0.005 sec (  0.450%)
 Dispersion                     ...        0 min,  0.010 sec (  0.827%)
 classical contributions        ...        0 min,  0.009 sec (  0.728%)
 integral evaluation            ...        0 min,  0.002 sec (  0.203%)
 iterations                     ...        0 min,  1.023 sec ( 86.891%)
 molecular gradient             ...        0 min,  0.128 sec ( 10.862%)
 printout                       ...        0 min,  0.000 sec (  0.036%)

         :::::::::::::::::::::::::::::::::::::::::::::::::::::
         ::                     SUMMARY                     ::
         :::::::::::::::::::::::::::::::::::::::::::::::::::::
         :: total energy             -26.347081453658 Eh    ::
         :: gradient norm              1.689790010421 Eh/a0 ::
         :: HOMO-LUMO gap              2.315054832544 eV    ::
         ::.................................................::
         :: SCC energy               -28.193160275985 Eh    ::
         :: -> isotropic ES            0.055448630434 Eh    ::
         :: -> anisotropic ES          0.000052560439 Eh    ::
         :: -> anisotropic XC          0.015809444302 Eh    ::
         :: -> dispersion             -0.015164712996 Eh    ::
         :: repulsion energy           0.320237576761 Eh    ::
         :: add. restraining           1.525841245566 Eh    ::
         :: total charge              -0.000000000000 e     ::
         :::::::::::::::::::::::::::::::::::::::::::::::::::::

      ----------------------------------------------------------- 
     |                   =====================                   |
     |                        A N C O P T                        |
     |                   =====================                   |
     |               Approximate Normal Coordinate               |
     |                Rational Function Optimizer                |
      ----------------------------------------------------------- 
      ----------------------------------------------------------- 
     |                   =====================                   |
     |                        A N C O P T                        |
     |                   =====================                   |
     |               Approximate Normal Coordinate               |
     |                Rational Function Optimizer                |
      ----------------------------------------------------------- 

          ...................................................
          :                      SETUP                      :
          :.................................................:
          :   optimization level            normal          :
          :   max. optcycles                   200          :
          :   ANC micro-cycles                  20          :
          :   degrees of freedom                45          :
          :.................................................:
          :   RF solver                   davidson          :
          :   write xtbopt.log                true          :
          :   linear?                        false          :
          :   energy convergence         0.5000000E-05 Eh   :
          :   grad. convergence          0.1000000E-02 Eh/α :
          :   maxmium RF displ.          1.0000000          :
          :   Hlow (freq-cutoff)         0.1000000E-01      :
          :   Hmax (freq-cutoff)         5.0000000          :
          :   S6 in model hess.         20.0000000          :
          ...................................................

generating ANC from exact Hessian ...
Using Lindh-Hessian (1995)
 Shifting diagonal of input Hessian by   0.27632608690895316     
 Lowest  eigenvalues of input Hessian
    0.010000    0.000000    0.000000    0.000000    0.000000    0.000000
    0.000000    0.282055    0.285379    0.289842    0.290875    0.294334
    0.306583    0.316715    0.327735    0.331125    0.343211    0.344990
 Highest eigenvalues
    2.006007    2.318650    2.503621    2.533085    3.840962    4.444211


........................................................................
.............................. CYCLE    1 ..............................
........................................................................

 iter      E             dE          RMSdq      gap      omega  full diag
   1    -28.1931824 -0.281932E+02  0.580E-05    2.32       0.0  T
   2    -28.1931824 -0.746425E-11  0.336E-05    2.32     721.9  T
   3    -28.1931824  0.397904E-12  0.224E-05    2.32    1083.2  T
     SCC iter.                  ...        0 min,  0.428 sec
     gradient                   ...        0 min,  0.072 sec
 * total energy  :   -26.3470815 Eh     change       -0.8571988E-10 Eh
   gradient norm :     1.6897185 Eh/α   predicted     0.0000000E+00 (-100.00%)
   displ. norm   :     0.7089428 α      lambda       -0.1159668E+01
   maximum displ.:     0.5376081 α      in ANC's #31, #38, #43, ...

........................................................................
.............................. CYCLE    2 ..............................
........................................................................

 iter      E             dE          RMSdq      gap      omega  full diag
   1    -28.1450794 -0.281451E+02  0.154E+00    1.96       0.0  T
   2    -28.1509152 -0.583578E-02  0.102E+00    1.82       1.0  T
   3    -28.1524077 -0.149253E-02  0.505E-01    1.88       1.0  T
   4    -28.1524361 -0.283695E-04  0.262E-01    1.86       1.0  T
   5    -28.1531121 -0.675960E-03  0.866E-02    1.87       1.0  T
   6    -28.1531232 -0.111083E-04  0.215E-02    1.87       1.1  T
   7    -28.1531244 -0.122597E-05  0.141E-02    1.87       1.7  T
   8    -28.1531260 -0.158070E-05  0.729E-03    1.87       3.3  T
   9    -28.1531262 -0.247500E-06  0.167E-03    1.87      14.5  T
  10    -28.1531263 -0.164500E-07  0.844E-04    1.87      28.7  T
  11    -28.1531263 -0.106027E-08  0.292E-04    1.87      83.1  T
     SCC iter.                  ...        0 min,  0.877 sec
     gradient                   ...        0 min,  0.108 sec
 * total energy  :   -27.2897956 Eh     change       -0.9427142E+00 Eh
   gradient norm :     0.9906966 Eh/α   predicted    -0.8712582E+00 (  -7.58%)
   displ. norm   :     0.6685176 α      lambda       -0.6366355E+00
   maximum displ.:     0.4871653 α      in ANC's #31, #38, #28, ...

........................................................................
.............................. CYCLE    3 ..............................
........................................................................

 iter      E             dE          RMSdq      gap      omega  full diag
   1    -28.0508143 -0.280508E+02  0.280E+00    1.10       0.0  T
   2    -28.0387453  0.120690E-01  0.176E+00    1.04       1.0  T
   3    -28.0669951 -0.282498E-01  0.126E+00    1.07       1.0  T
   4    -28.0752619 -0.826673E-02  0.255E-01    1.05       1.0  T
   5    -28.0755175 -0.255641E-03  0.118E-01    1.04       1.0  T
   6    -28.0755885 -0.709727E-04  0.663E-02    1.04       1.0  T
   7    -28.0755869  0.156958E-05  0.483E-02    1.04       1.0  T
   8    -28.0756192 -0.322574E-04  0.116E-02    1.04       2.1  T
   9    -28.0756201 -0.902000E-06  0.387E-03    1.04       6.3  T
  10    -28.0756201 -0.262467E-07  0.266E-03    1.04       9.1  T
  11    -28.0756201 -0.314522E-07  0.887E-04    1.04      27.3  T
  12    -28.0756201 -0.209230E-08  0.315E-04    1.04      76.9  T
     SCC iter.                  ...        0 min,  1.852 sec
     gradient                   ...        0 min,  0.088 sec
 * total energy  :   -27.6976801 Eh     change       -0.4078845E+00 Eh
   gradient norm :     0.3058360 Eh/α   predicted    -0.4605790E+00 (  12.92%)
   displ. norm   :     0.5742401 α      lambda       -0.1026376E+00
   maximum displ.:     0.4968341 α      in ANC's #1, #31, #24, ...

........................................................................
.............................. CYCLE    4 ..............................
........................................................................

 iter      E             dE          RMSdq      gap      omega  full diag
   1    -28.0450297 -0.280450E+02  0.152E+00    1.13       0.0  T
   2    -28.0480234 -0.299374E-02  0.614E-01    0.98       1.0  T
   3    -28.0493732 -0.134977E-02  0.664E-01    1.10       1.0  T
   4    -28.0514924 -0.211920E-02  0.159E-01    1.05       1.0  T
   5    -28.0514775  0.148871E-04  0.694E-02    1.03       1.0  T
   6    -28.0514820 -0.449654E-05  0.543E-02    1.04       1.0  T
   7    -28.0515177 -0.356376E-04  0.146E-02    1.04       1.7  T
   8    -28.0515189 -0.124195E-05  0.845E-03    1.04       2.9  T
   9    -28.0515196 -0.682090E-06  0.425E-03    1.04       5.7  T
  10    -28.0515196 -0.521455E-07  0.140E-03    1.04      17.3  T
  11    -28.0515197 -0.136741E-07  0.545E-04    1.04      44.5  T
  12    -28.0515197 -0.145548E-08  0.221E-04    1.04     109.6  T
     SCC iter.                  ...        0 min,  1.324 sec
     gradient                   ...        0 min,  0.099 sec
 * total energy  :   -27.7494162 Eh     change       -0.5173607E-01 Eh
   gradient norm :     0.2544354 Eh/α   predicted    -0.6824133E-01 (  31.90%)
   displ. norm   :     0.4048046 α      lambda       -0.3327168E-01
   maximum displ.:     0.3187288 α      in ANC's #1, #8, #24, ...

........................................................................
.............................. CYCLE    5 ..............................
........................................................................

 iter      E             dE          RMSdq      gap      omega  full diag
   1    -28.0428062 -0.280428E+02  0.105E+00    1.22       0.0  T
   2    -28.0427913  0.149514E-04  0.947E-01    1.00       1.0  T
   3    -28.0496518 -0.686057E-02  0.267E-01    1.11       1.0  T
   4    -28.0492672  0.384629E-03  0.207E-01    1.08       1.0  T
   5    -28.0497931 -0.525884E-03  0.101E-01    1.09       1.0  T
   6    -28.0498540 -0.609116E-04  0.254E-02    1.10       1.0  T
   7    -28.0498548 -0.858234E-06  0.694E-03    1.10       3.5  T
   8    -28.0498551 -0.260680E-06  0.346E-03    1.10       7.0  T
   9    -28.0498552 -0.434334E-07  0.164E-03    1.10      14.8  T
  10    -28.0498552 -0.122390E-07  0.620E-04    1.10      39.1  T
  11    -28.0498552 -0.321308E-08  0.294E-04    1.10      82.6  T
     SCC iter.                  ...        0 min,  1.457 sec
     gradient                   ...        0 min,  0.137 sec
 * total energy  :   -27.7605029 Eh     change       -0.1108667E-01 Eh
   gradient norm :     0.1374950 Eh/α   predicted    -0.1936191E-01 (  74.64%)
   displ. norm   :     0.5146313 α      lambda       -0.3204680E-01
   maximum displ.:     0.4425504 α      in ANC's #1, #8, #31, ...

........................................................................
.............................. CYCLE    6 ..............................
........................................................................

 iter      E             dE          RMSdq      gap      omega  full diag
   1    -28.0605899 -0.280606E+02  0.954E-01    1.33       0.0  T
   2    -28.0618587 -0.126881E-02  0.458E-01    1.46       1.0  T
   3    -28.0626868 -0.828074E-03  0.323E-01    1.37       1.0  T
   4    -28.0630964 -0.409671E-03  0.822E-02    1.41       1.0  T
   5    -28.0631080 -0.115347E-04  0.509E-02    1.41       1.0  T
   6    -28.0631149 -0.689745E-05  0.321E-02    1.41       1.0  T
   7    -28.0631273 -0.124391E-04  0.961E-03    1.41       2.5  T
   8    -28.0631281 -0.761764E-06  0.543E-03    1.41       4.5  T
   9    -28.0631282 -0.902489E-07  0.208E-03    1.41      11.7  T
  10    -28.0631282 -0.289548E-07  0.724E-04    1.41      33.5  T
  11    -28.0631282 -0.141102E-08  0.272E-04    1.41      89.1  T
     SCC iter.                  ...        0 min,  1.130 sec
     gradient                   ...        0 min,  0.122 sec
 * total energy  :   -27.7809374 Eh     change       -0.2043452E-01 Eh
   gradient norm :     0.1075289 Eh/α   predicted    -0.2026710E-01 (  -0.82%)
   displ. norm   :     0.4223533 α      lambda       -0.1498171E-01
   maximum displ.:     0.3509028 α      in ANC's #1, #8, #20, ...

........................................................................
.............................. CYCLE    7 ..............................
........................................................................

 iter      E             dE          RMSdq      gap      omega  full diag
   1    -28.0685302 -0.280685E+02  0.429E-01    1.52       0.0  T
   2    -28.0687765 -0.246289E-03  0.267E-01    1.54       1.0  T
   3    -28.0687576  0.189049E-04  0.163E-01    1.52       1.0  T
   4    -28.0689434 -0.185743E-03  0.875E-02    1.52       1.0  T
   5    -28.0689914 -0.480574E-04  0.445E-02    1.53       1.0  T
   6    -28.0690068 -0.153860E-04  0.170E-02    1.52       1.4  T
   7    -28.0690082 -0.139092E-05  0.674E-03    1.53       3.6  T
   8    -28.0690085 -0.282682E-06  0.320E-03    1.53       7.6  T
   9    -28.0690085 -0.459626E-07  0.179E-03    1.53      13.5  T
  10    -28.0690086 -0.178532E-07  0.447E-04    1.53      54.2  T
  11    -28.0690086 -0.153841E-08  0.215E-04    1.53     112.6  T
     SCC iter.                  ...        0 min,  1.017 sec
     gradient                   ...        0 min,  0.129 sec
 * total energy  :   -27.7902728 Eh     change       -0.9335412E-02 Eh
   gradient norm :     0.0587815 Eh/α   predicted    -0.8827114E-02 (  -5.44%)
   displ. norm   :     0.2466181 α      lambda       -0.7357579E-02
   maximum displ.:     0.1458991 α      in ANC's #8, #1, #14, ...

........................................................................
.............................. CYCLE    8 ..............................
........................................................................

 iter      E             dE          RMSdq      gap      omega  full diag
   1    -28.0828478 -0.280828E+02  0.220E-01    1.61       0.0  T
   2    -28.0827840  0.638065E-04  0.209E-01    1.56       1.0  T
   3    -28.0830579 -0.273897E-03  0.931E-02    1.59       1.0  T
   4    -28.0830346  0.233869E-04  0.516E-02    1.58       1.0  T
   5    -28.0830719 -0.373307E-04  0.142E-02    1.58       1.7  T
   6    -28.0830730 -0.111352E-05  0.427E-03    1.59       5.7  T
   7    -28.0830730 -0.292377E-07  0.151E-03    1.59      16.0  T
   8    -28.0830730 -0.493282E-08  0.538E-04    1.59      45.1  T
   9    -28.0830730 -0.124938E-08  0.249E-04    1.59      97.3  T
     SCC iter.                  ...        0 min,  0.776 sec
     gradient                   ...        0 min,  0.143 sec
 * total energy  :   -27.7959722 Eh     change       -0.5699396E-02 Eh
   gradient norm :     0.0496483 Eh/α   predicted    -0.3902540E-02 ( -31.53%)
   displ. norm   :     0.3077944 α      lambda       -0.7795861E-02
   maximum displ.:     0.1910121 α      in ANC's #8, #5, #15, ...

........................................................................
.............................. CYCLE    9 ..............................
........................................................................

 iter      E             dE          RMSdq      gap      omega  full diag
   1    -28.1014111 -0.281014E+02  0.347E-01    1.63       0.0  T
   2    -28.1016035 -0.192466E-03  0.254E-01    1.58       1.0  T
   3    -28.1018503 -0.246792E-03  0.126E-01    1.61       1.0  T
   4    -28.1018543 -0.393840E-05  0.594E-02    1.60       1.0  T
   5    -28.1018793 -0.250299E-04  0.315E-02    1.60       1.0  T
   6    -28.1018923 -0.130425E-04  0.825E-03    1.60       2.9  T
   7    -28.1018925 -0.133962E-06  0.225E-03    1.60      10.8  T
   8    -28.1018925 -0.104633E-07  0.125E-03    1.60      19.4  T
   9    -28.1018925 -0.797373E-08  0.421E-04    1.60      57.7  T
  10    -28.1018925 -0.846939E-09  0.195E-04    1.60     124.1  T
     SCC iter.                  ...        0 min,  0.988 sec
     gradient                   ...        0 min,  0.117 sec
 * total energy  :   -27.8011193 Eh     change       -0.5147093E-02 Eh
   gradient norm :     0.0322916 Eh/α   predicted    -0.4267209E-02 ( -17.09%)
   displ. norm   :     0.2252438 α      lambda       -0.3018785E-02
   maximum displ.:     0.1241256 α      in ANC's #8, #5, #1, ...

........................................................................
.............................. CYCLE   10 ..............................
........................................................................

 iter      E             dE          RMSdq      gap      omega  full diag
   1    -28.1083482 -0.281083E+02  0.205E-01    1.62       0.0  T
   2    -28.1084082 -0.600133E-04  0.129E-01    1.60       1.0  T
   3    -28.1084493 -0.411291E-04  0.777E-02    1.61       1.0  T
   4    -28.1084677 -0.184528E-04  0.220E-02    1.60       1.1  T
   5    -28.1084693 -0.154963E-05  0.699E-03    1.61       3.5  T
   6    -28.1084693 -0.136717E-07  0.411E-03    1.61       5.9  T
   7    -28.1084695 -0.182674E-06  0.149E-03    1.61      16.3  T
   8    -28.1084695 -0.147390E-07  0.753E-04    1.61      32.2  T
   9    -28.1084695 -0.329830E-08  0.246E-04    1.61      98.7  T
     SCC iter.                  ...        0 min,  0.930 sec
     gradient                   ...        0 min,  0.139 sec
 * total energy  :   -27.8033353 Eh     change       -0.2215969E-02 Eh
   gradient norm :     0.0293923 Eh/α   predicted    -0.1585969E-02 ( -28.43%)
   displ. norm   :     0.2479887 α      lambda       -0.2957599E-02
   maximum displ.:     0.1162160 α      in ANC's #5, #8, #1, ...

........................................................................
.............................. CYCLE   11 ..............................
........................................................................

 iter      E             dE          RMSdq      gap      omega  full diag
   1    -28.1112921 -0.281113E+02  0.194E-01    1.63       0.0  T
   2    -28.1113208 -0.287194E-04  0.129E-01    1.62       1.0  T
   3    -28.1113631 -0.422363E-04  0.778E-02    1.63       1.0  T
   4    -28.1113826 -0.195425E-04  0.218E-02    1.62       1.1  T
   5    -28.1113869 -0.427441E-05  0.130E-02    1.62       1.9  T
   6    -28.1113889 -0.197377E-05  0.353E-03    1.62       6.9  T
   7    -28.1113889 -0.495075E-07  0.101E-03    1.62      24.0  T
   8    -28.1113889 -0.264444E-08  0.615E-04    1.62      39.4  T
   9    -28.1113889 -0.115822E-08  0.165E-04    1.62     146.8  T
     SCC iter.                  ...        0 min,  1.401 sec
     gradient                   ...        0 min,  0.202 sec
 * total energy  :   -27.8055895 Eh     change       -0.2254250E-02 Eh
   gradient norm :     0.0293993 Eh/α   predicted    -0.1569753E-02 ( -30.36%)
   displ. norm   :     0.3304255 α      lambda       -0.3491289E-02
   maximum displ.:     0.1616094 α      in ANC's #5, #1, #8, ...

........................................................................
.............................. CYCLE   12 ..............................
........................................................................

 iter      E             dE          RMSdq      gap      omega  full diag
   1    -28.1099594 -0.281100E+02  0.196E-01    1.66       0.0  T
   2    -28.1099658 -0.636687E-05  0.116E-01    1.65       1.0  T
   3    -28.1099247  0.411023E-04  0.848E-02    1.66       1.0  T
   4    -28.1099883 -0.635913E-04  0.175E-02    1.66       1.4  T
   5    -28.1099914 -0.314523E-05  0.948E-03    1.66       2.6  T
   6    -28.1099921 -0.708771E-06  0.200E-03    1.66      12.1  T
   7    -28.1099921 -0.851123E-08  0.104E-03    1.66      23.3  T
   8    -28.1099921 -0.189818E-09  0.538E-04    1.66      45.1  T
   9    -28.1099921 -0.206538E-08  0.159E-04    1.66     152.6  T
     SCC iter.                  ...        0 min,  2.068 sec
     gradient                   ...        0 min,  0.193 sec
 * total energy  :   -27.8082707 Eh     change       -0.2681154E-02 Eh
   gradient norm :     0.0374722 Eh/α   predicted    -0.1936231E-02 ( -27.78%)
   displ. norm   :     0.3717478 α      lambda       -0.3861375E-02
   maximum displ.:     0.1911081 α      in ANC's #5, #2, #1, ...

........................................................................
.............................. CYCLE   13 ..............................
........................................................................

 iter      E             dE          RMSdq      gap      omega  full diag
   1    -28.1065914 -0.281066E+02  0.209E-01    1.71       0.0  T
   2    -28.1066164 -0.249735E-04  0.111E-01    1.71       1.0  T
   3    -28.1066052  0.111291E-04  0.451E-02    1.71       1.0  T
   4    -28.1066151 -0.984701E-05  0.213E-02    1.71       1.1  T
   5    -28.1066204 -0.531656E-05  0.877E-03    1.71       2.8  T
   6    -28.1066208 -0.419108E-06  0.500E-03    1.71       4.8  T
   7    -28.1066210 -0.233037E-06  0.102E-03    1.71      23.8  T
   8    -28.1066210 -0.729152E-09  0.530E-04    1.71      45.8  T
   9    -28.1066210 -0.746308E-09  0.207E-04    1.71     117.3  T
     SCC iter.                  ...        0 min,  1.143 sec
     gradient                   ...        0 min,  0.172 sec
 * total energy  :   -27.8111982 Eh     change       -0.2927557E-02 Eh
   gradient norm :     0.0422238 Eh/α   predicted    -0.2197493E-02 ( -24.94%)
   displ. norm   :     0.3921935 α      lambda       -0.3840773E-02
   maximum displ.:     0.1961968 α      in ANC's #5, #2, #1, ...

........................................................................
.............................. CYCLE   14 ..............................
........................................................................

 iter      E             dE          RMSdq      gap      omega  full diag
   1    -28.1041191 -0.281041E+02  0.202E-01    1.76       0.0  T
   2    -28.1041654 -0.463250E-04  0.119E-01    1.76       1.0  T
   3    -28.1041386  0.267929E-04  0.796E-02    1.75       1.0  T
   4    -28.1041935 -0.548385E-04  0.281E-02    1.75       1.0  T
   5    -28.1041991 -0.562451E-05  0.137E-02    1.76       1.8  T
   6    -28.1042011 -0.196967E-05  0.485E-03    1.76       5.0  T
   7    -28.1042012 -0.923835E-07  0.124E-03    1.76      19.5  T
   8    -28.1042012 -0.307471E-08  0.704E-04    1.76      34.4  T
   9    -28.1042012 -0.116577E-08  0.205E-04    1.76     118.3  T
     SCC iter.                  ...        0 min,  0.942 sec
     gradient                   ...        0 min,  0.159 sec
 * total energy  :   -27.8141440 Eh     change       -0.2945789E-02 Eh
   gradient norm :     0.0447721 Eh/α   predicted    -0.2215772E-02 ( -24.78%)
   displ. norm   :     0.3838195 α      lambda       -0.4310889E-02
   maximum displ.:     0.1924885 α      in ANC's #5, #2, #4, ...

........................................................................
.............................. CYCLE   15 ..............................
........................................................................

 iter      E             dE          RMSdq      gap      omega  full diag
   1    -28.1070916 -0.281071E+02  0.242E-01    1.80       0.0  T
   2    -28.1071236 -0.320487E-04  0.146E-01    1.80       1.0  T
   3    -28.1070575  0.661405E-04  0.109E-01    1.80       1.0  T
   4    -28.1071897 -0.132233E-03  0.312E-02    1.80       1.0  T
   5    -28.1071960 -0.629584E-05  0.160E-02    1.80       1.5  T
   6    -28.1071984 -0.235678E-05  0.564E-03    1.80       4.3  T
   7    -28.1071985 -0.105210E-06  0.135E-03    1.80      18.0  T
   8    -28.1071985 -0.896975E-09  0.884E-04    1.80      27.4  T
   9    -28.1071985 -0.252995E-08  0.256E-04    1.80      94.7  T
     SCC iter.                  ...        0 min,  0.844 sec
     gradient                   ...        0 min,  0.194 sec
 * total energy  :   -27.8172829 Eh     change       -0.3138864E-02 Eh
   gradient norm :     0.0446896 Eh/α   predicted    -0.2472974E-02 ( -21.21%)
   displ. norm   :     0.4156062 α      lambda       -0.4234358E-02
   maximum displ.:     0.1981772 α      in ANC's #5, #1, #2, ...

........................................................................
.............................. CYCLE   16 ..............................
........................................................................

 iter      E             dE          RMSdq      gap      omega  full diag
   1    -28.1129617 -0.281130E+02  0.229E-01    1.81       0.0  T
   2    -28.1129532  0.851679E-05  0.171E-01    1.80       1.0  T
   3    -28.1130376 -0.843484E-04  0.102E-01    1.81       1.0  T
   4    -28.1131082 -0.706638E-04  0.372E-02    1.80       1.0  T
   5    -28.1131199 -0.116991E-04  0.144E-02    1.80       1.7  T
   6    -28.1131214 -0.149604E-05  0.440E-03    1.80       5.5  T
   7    -28.1131215 -0.654852E-07  0.196E-03    1.80      12.4  T
   8    -28.1131215 -0.517977E-08  0.980E-04    1.80      24.8  T
   9    -28.1131215 -0.260150E-08  0.393E-04    1.80      61.8  T
     SCC iter.                  ...        0 min,  2.028 sec
     gradient                   ...        0 min,  0.091 sec
 * total energy  :   -27.8201940 Eh     change       -0.2911160E-02 Eh
   gradient norm :     0.0466860 Eh/α   predicted    -0.2482876E-02 ( -14.71%)
   displ. norm   :     0.3393090 α      lambda       -0.4195559E-02
   maximum displ.:     0.1695585 α      in ANC's #5, #2, #4, ...

........................................................................
.............................. CYCLE   17 ..............................
........................................................................

 iter      E             dE          RMSdq      gap      omega  full diag
   1    -28.1243368 -0.281243E+02  0.270E-01    1.81       0.0  T
   2    -28.1243325  0.435131E-05  0.149E-01    1.80       1.0  T
   3    -28.1241501  0.182373E-03  0.128E-01    1.82       1.0  T
   4    -28.1243897 -0.239546E-03  0.218E-02    1.80       1.1  T
   5    -28.1243904 -0.723214E-06  0.121E-02    1.80       2.0  T
   6    -28.1243913 -0.912220E-06  0.336E-03    1.80       7.2  T
   7    -28.1243913 -0.410244E-07  0.214E-03    1.80      11.3  T
   8    -28.1243913 -0.545731E-08  0.998E-04    1.80      24.3  T
   9    -28.1243914 -0.300032E-08  0.383E-04    1.80      63.3  T
     SCC iter.                  ...        0 min,  0.789 sec
     gradient                   ...        0 min,  0.148 sec
 * total energy  :   -27.8228676 Eh     change       -0.2673594E-02 Eh
   gradient norm :     0.0333637 Eh/α   predicted    -0.2339302E-02 ( -12.50%)
   displ. norm   :     0.4348481 α      lambda       -0.2977116E-02
   maximum displ.:     0.2259210 α      in ANC's #5, #2, #4, ...

........................................................................
.............................. CYCLE   18 ..............................
........................................................................

 iter      E             dE          RMSdq      gap      omega  full diag
   1    -28.1240634 -0.281241E+02  0.237E-01    1.81       0.0  T
   2    -28.1240729 -0.944646E-05  0.148E-01    1.78       1.0  T
   3    -28.1241328 -0.599399E-04  0.955E-02    1.80       1.0  T
   4    -28.1241818 -0.489233E-04  0.336E-02    1.79       1.0  T
   5    -28.1241945 -0.127304E-04  0.166E-02    1.79       1.5  T
   6    -28.1241964 -0.188347E-05  0.405E-03    1.79       6.0  T
   7    -28.1241964 -0.502563E-07  0.215E-03    1.79      11.3  T
   8    -28.1241964 -0.384404E-08  0.111E-03    1.79      21.8  T
   9    -28.1241964 -0.607753E-08  0.283E-04    1.79      85.7  T
  10    -28.1241964 -0.655184E-09  0.147E-04    1.79     164.9  T
     SCC iter.                  ...        0 min,  1.381 sec
     gradient                   ...        0 min,  0.176 sec
 * total energy  :   -27.8249939 Eh     change       -0.2126253E-02 Eh
   gradient norm :     0.0288486 Eh/α   predicted    -0.1770042E-02 ( -16.75%)
   displ. norm   :     0.2625512 α      lambda       -0.2021746E-02
   maximum displ.:     0.1330174 α      in ANC's #5, #2, #4, ...

........................................................................
.............................. CYCLE   19 ..............................
........................................................................

 iter      E             dE          RMSdq      gap      omega  full diag
   1    -28.1272955 -0.281273E+02  0.175E-01    1.80       0.0  T
   2    -28.1273143 -0.188073E-04  0.102E-01    1.79       1.0  T
   3    -28.1273200 -0.574796E-05  0.651E-02    1.80       1.0  T
   4    -28.1273450 -0.249622E-04  0.162E-02    1.79       1.5  T
   5    -28.1273451 -0.171401E-06  0.834E-03    1.79       2.9  T
   6    -28.1273456 -0.490715E-06  0.442E-03    1.79       5.5  T
   7    -28.1273459 -0.267963E-06  0.145E-03    1.79      16.7  T
   8    -28.1273459 -0.138699E-08  0.836E-04    1.79      29.0  T
   9    -28.1273459 -0.334759E-08  0.205E-04    1.79     118.5  T
     SCC iter.                  ...        0 min,  0.836 sec
     gradient                   ...        0 min,  0.180 sec
 * total energy  :   -27.8263571 Eh     change       -0.1363223E-02 Eh
   gradient norm :     0.0264902 Eh/α   predicted    -0.1080552E-02 ( -20.74%)
   displ. norm   :     0.2656425 α      lambda       -0.1311345E-02
   maximum displ.:     0.1356426 α      in ANC's #5, #2, #11, ...

........................................................................
.............................. CYCLE   20 ..............................
........................................................................

 iter      E             dE          RMSdq      gap      omega  full diag
   1    -28.1237262 -0.281237E+02  0.140E-01    1.82       0.0  T
   2    -28.1237407 -0.145294E-04  0.865E-02    1.81       1.0  T
   3    -28.1237515 -0.108482E-04  0.522E-02    1.82       1.0  T
   4    -28.1237641 -0.125723E-04  0.132E-02    1.82       1.8  T
   5    -28.1237642 -0.956247E-07  0.869E-03    1.82       2.8  T
   6    -28.1237648 -0.613128E-06  0.353E-03    1.82       6.9  T
   7    -28.1237650 -0.170782E-06  0.119E-03    1.82      20.3  T
   8    -28.1237650 -0.426068E-08  0.737E-04    1.82      32.9  T
   9    -28.1237650 -0.104141E-08  0.208E-04    1.82     116.7  T
     SCC iter.                  ...        0 min,  1.971 sec
     gradient                   ...        0 min,  0.134 sec
 * total energy  :   -27.8273312 Eh     change       -0.9740524E-03 Eh
   gradient norm :     0.0261666 Eh/α   predicted    -0.7019393E-03 ( -27.94%)
   displ. norm   :     0.2008450 α      lambda       -0.1653734E-02
   maximum displ.:     0.0801516 α      in ANC's #11, #17, #5, ...
 * RMSD in coord.:     1.0404273 α      energy gain  -0.1480250E+01 Eh

generating ANC from exact Hessian ...
Using Lindh-Hessian (1995)
 Shifting diagonal of input Hessian by    1.6608822672839169E-002
 Lowest  eigenvalues of input Hessian
    0.010000    0.000000    0.000000    0.000000    0.000000    0.000000
    0.000000    0.019401    0.021557    0.024964    0.025834    0.028876
    0.030838    0.037025    0.044210    0.055047    0.059563    0.077992
 Highest eigenvalues
    1.807726    1.863298    2.018494    2.042988    2.447261    3.703366


........................................................................
.............................. CYCLE   21 ..............................
........................................................................

 iter      E             dE          RMSdq      gap      omega  full diag
   1    -28.1254850 -0.281255E+02  0.154E-01    1.85       0.0  T
   2    -28.1254890 -0.401895E-05  0.966E-02    1.85       1.0  T
   3    -28.1254489  0.401004E-04  0.716E-02    1.84       1.0  T
   4    -28.1255071 -0.581292E-04  0.189E-02    1.85       1.3  T
   5    -28.1255113 -0.422174E-05  0.845E-03    1.85       2.9  T
   6    -28.1255117 -0.381887E-06  0.254E-03    1.85       9.6  T
   7    -28.1255117 -0.182107E-07  0.957E-04    1.85      25.4  T
   8    -28.1255117 -0.178374E-08  0.610E-04    1.85      39.8  T
     SCC iter.                  ...        0 min,  0.815 sec
     gradient                   ...        0 min,  0.132 sec
 * total energy  :   -27.8283414 Eh     change       -0.1010285E-02 Eh
   gradient norm :     0.0212767 Eh/α   predicted     0.0000000E+00 (-100.00%)
   displ. norm   :     0.2269170 α      lambda       -0.2029910E-02
   maximum displ.:     0.1401804 α      in ANC's #1, #9, #11, ...

........................................................................
.............................. CYCLE   22 ..............................
........................................................................

 iter      E             dE          RMSdq      gap      omega  full diag
   1    -28.1279171 -0.281279E+02  0.204E-01    1.87       0.0  T
   2    -28.1279295 -0.124031E-04  0.109E-01    1.86       1.0  T
   3    -28.1278955  0.340216E-04  0.776E-02    1.88       1.0  T
   4    -28.1279533 -0.577904E-04  0.237E-02    1.87       1.0  T
   5    -28.1279567 -0.345303E-05  0.117E-02    1.87       2.1  T
   6    -28.1279580 -0.128668E-05  0.180E-03    1.87      13.5  T
   7    -28.1279580 -0.891287E-09  0.951E-04    1.87      25.5  T
   8    -28.1279580 -0.223021E-08  0.380E-04    1.87      63.8  T
     SCC iter.                  ...        0 min,  0.786 sec
     gradient                   ...        0 min,  0.170 sec
 * total energy  :   -27.8298400 Eh     change       -0.1498584E-02 Eh
   gradient norm :     0.0110337 Eh/α   predicted    -0.1067213E-02 ( -28.79%)
   displ. norm   :     0.3647476 α      lambda       -0.1869927E-02
   maximum displ.:     0.1674713 α      in ANC's #2, #1, #9, ...

........................................................................
.............................. CYCLE   23 ..............................
........................................................................

 iter      E             dE          RMSdq      gap      omega  full diag
   1    -28.1292671 -0.281293E+02  0.240E-01    1.89       0.0  T
   2    -28.1292899 -0.227819E-04  0.144E-01    1.86       1.0  T
   3    -28.1292961 -0.617504E-05  0.983E-02    1.89       1.0  T
   4    -28.1293530 -0.568694E-04  0.295E-02    1.88       1.0  T
   5    -28.1293633 -0.103705E-04  0.113E-02    1.88       2.1  T
   6    -28.1293643 -0.101566E-05  0.238E-03    1.88      10.2  T
   7    -28.1293644 -0.153241E-07  0.852E-04    1.88      28.5  T
   8    -28.1293644 -0.208869E-08  0.470E-04    1.88      51.6  T
     SCC iter.                  ...        0 min,  0.844 sec
     gradient                   ...        0 min,  0.161 sec
 * total energy  :   -27.8310102 Eh     change       -0.1170175E-02 Eh
   gradient norm :     0.0123662 Eh/α   predicted    -0.1059359E-02 (  -9.47%)
   displ. norm   :     0.3568540 α      lambda       -0.9551682E-03
   maximum displ.:     0.2709895 α      in ANC's #1, #2, #3, ...

........................................................................
.............................. CYCLE   24 ..............................
........................................................................

 iter      E             dE          RMSdq      gap      omega  full diag
   1    -28.1287563 -0.281288E+02  0.221E-01    1.89       0.0  T
   2    -28.1288293 -0.730050E-04  0.128E-01    1.86       1.0  T
   3    -28.1289087 -0.794080E-04  0.680E-02    1.88       1.0  T
   4    -28.1289259 -0.171923E-04  0.191E-02    1.88       1.3  T
   5    -28.1289253  0.612237E-06  0.134E-02    1.88       1.8  T
   6    -28.1289274 -0.219458E-05  0.466E-03    1.88       5.2  T
   7    -28.1289276 -0.197666E-06  0.113E-03    1.88      21.5  T
   8    -28.1289276 -0.410522E-08  0.683E-04    1.88      35.5  T
   9    -28.1289277 -0.194674E-08  0.277E-04    1.88      87.6  T
     SCC iter.                  ...        0 min,  1.099 sec
     gradient                   ...        0 min,  0.138 sec
 * total energy  :   -27.8316300 Eh     change       -0.6197710E-03 Eh
   gradient norm :     0.0263596 Eh/α   predicted    -0.5383978E-03 ( -13.13%)
   displ. norm   :     0.3403369 α      lambda       -0.9921249E-03
   maximum displ.:     0.2131915 α      in ANC's #1, #2, #3, ...

........................................................................
.............................. CYCLE   25 ..............................
........................................................................

 iter      E             dE          RMSdq      gap      omega  full diag
   1    -28.1303030 -0.281303E+02  0.169E-01    1.91       0.0  T
   2    -28.1303456 -0.425718E-04  0.102E-01    1.88       1.0  T
   3    -28.1303899 -0.442535E-04  0.570E-02    1.90       1.0  T
   4    -28.1303987 -0.881721E-05  0.146E-02    1.89       1.7  T
   5    -28.1303985  0.224228E-06  0.104E-02    1.89       2.3  T
   6    -28.1303999 -0.140939E-05  0.351E-03    1.89       6.9  T
   7    -28.1304000 -0.951451E-07  0.104E-03    1.89      23.3  T
   8    -28.1304000 -0.153085E-08  0.607E-04    1.89      39.9  T
   9    -28.1304000 -0.100918E-08  0.224E-04    1.89     108.2  T
     SCC iter.                  ...        0 min,  0.987 sec
     gradient                   ...        0 min,  0.093 sec
 * total energy  :   -27.8323629 Eh     change       -0.7329561E-03 Eh
   gradient norm :     0.0179120 Eh/α   predicted    -0.5535170E-03 ( -24.48%)
   displ. norm   :     0.3846696 α      lambda       -0.9650789E-03
   maximum displ.:     0.2899644 α      in ANC's #1, #2, #3, ...

........................................................................
.............................. CYCLE   26 ..............................
........................................................................

 iter      E             dE          RMSdq      gap      omega  full diag
   1    -28.1328870 -0.281329E+02  0.144E-01    1.92       0.0  T
   2    -28.1329081 -0.211861E-04  0.786E-02    1.91       1.0  T
   3    -28.1329113 -0.311272E-05  0.502E-02    1.92       1.0  T
   4    -28.1329253 -0.140392E-04  0.146E-02    1.92       1.7  T
   5    -28.1329244  0.851304E-06  0.111E-02    1.91       2.2  T
   6    -28.1329260 -0.156676E-05  0.296E-03    1.91       8.2  T
   7    -28.1329261 -0.671758E-07  0.127E-03    1.91      19.2  T
   8    -28.1329261 -0.262586E-08  0.656E-04    1.91      37.0  T
   9    -28.1329261 -0.968839E-09  0.207E-04    1.91     117.1  T
     SCC iter.                  ...        0 min,  0.681 sec
     gradient                   ...        0 min,  0.053 sec
 * total energy  :   -27.8330761 Eh     change       -0.7131501E-03 Eh
   gradient norm :     0.0177263 Eh/α   predicted    -0.5539399E-03 ( -22.32%)
   displ. norm   :     0.4100522 α      lambda       -0.8557215E-03
   maximum displ.:     0.2857544 α      in ANC's #1, #3, #2, ...

........................................................................
.............................. CYCLE   27 ..............................
........................................................................

 iter      E             dE          RMSdq      gap      omega  full diag
   1    -28.1332486 -0.281332E+02  0.149E-01    1.96       0.0  T
   2    -28.1332719 -0.233394E-04  0.822E-02    1.94       1.0  T
   3    -28.1332870 -0.151226E-04  0.511E-02    1.95       1.0  T
   4    -28.1332967 -0.965959E-05  0.156E-02    1.95       1.6  T
   5    -28.1332968 -0.630719E-07  0.105E-02    1.95       2.3  T
   6    -28.1332981 -0.133824E-05  0.228E-03    1.95      10.6  T
   7    -28.1332981 -0.401964E-07  0.119E-03    1.95      20.4  T
   8    -28.1332981 -0.280734E-08  0.542E-04    1.95      44.8  T
   9    -28.1332981 -0.877030E-09  0.244E-04    1.95      99.5  T
     SCC iter.                  ...        0 min,  0.592 sec
     gradient                   ...        0 min,  0.062 sec
 * total energy  :   -27.8337379 Eh     change       -0.6618614E-03 Eh
   gradient norm :     0.0142054 Eh/α   predicted    -0.4998005E-03 ( -24.49%)
   displ. norm   :     0.5138374 α      lambda       -0.1003667E-02
   maximum displ.:     0.3859349 α      in ANC's #1, #3, #2, ...

........................................................................
.............................. CYCLE   28 ..............................
........................................................................

 iter      E             dE          RMSdq      gap      omega  full diag
   1    -28.1323896 -0.281324E+02  0.173E-01    1.98       0.0  T
   2    -28.1324039 -0.143192E-04  0.796E-02    1.98       1.0  T
   3    -28.1324036  0.290446E-06  0.271E-02    1.98       1.0  T
   4    -28.1324058 -0.215419E-05  0.151E-02    1.98       1.6  T
   5    -28.1324068 -0.105942E-05  0.377E-03    1.98       6.4  T
   6    -28.1324069 -0.894357E-07  0.182E-03    1.98      13.3  T
   7    -28.1324069 -0.882214E-08  0.112E-03    1.98      21.7  T
   8    -28.1324069 -0.632404E-08  0.622E-04    1.98      39.0  T
   9    -28.1324069 -0.336646E-08  0.165E-04    1.98     147.2  T
     SCC iter.                  ...        0 min,  0.691 sec
     gradient                   ...        0 min,  0.035 sec
 * total energy  :   -27.8344471 Eh     change       -0.7092052E-03 Eh
   gradient norm :     0.0272630 Eh/α   predicted    -0.6343328E-03 ( -10.56%)
   displ. norm   :     0.4092883 α      lambda       -0.1448500E-02
   maximum displ.:     0.2034447 α      in ANC's #3, #1, #5, ...

........................................................................
.............................. CYCLE   29 ..............................
........................................................................

 iter      E             dE          RMSdq      gap      omega  full diag
   1    -28.1397690 -0.281398E+02  0.223E-01    2.05       0.0  T
   2    -28.1399012 -0.132125E-03  0.146E-01    2.08       1.0  T
   3    -28.1400251 -0.123986E-03  0.638E-02    2.07       1.0  T
   4    -28.1400273 -0.210928E-05  0.220E-02    2.07       1.1  T
   5    -28.1400280 -0.780674E-06  0.161E-02    2.07       1.5  T
   6    -28.1400315 -0.343453E-05  0.346E-03    2.07       7.0  T
   7    -28.1400315 -0.125317E-07  0.118E-03    2.07      20.6  T
   8    -28.1400315 -0.802898E-08  0.608E-04    2.07      39.9  T
   9    -28.1400315 -0.113118E-08  0.259E-04    2.07      93.5  T
     SCC iter.                  ...        0 min,  0.422 sec
     gradient                   ...        0 min,  0.003 sec
 * total energy  :   -27.8345058 Eh     change       -0.5867027E-04 Eh
   gradient norm :     0.0388264 Eh/α   predicted    -0.8455735E-03 (1341.23%)
   displ. norm   :     0.4084612 α      lambda       -0.1716790E-02
   maximum displ.:     0.2702710 α      in ANC's #1, #3, #2, ...

........................................................................
.............................. CYCLE   30 ..............................
........................................................................

 iter      E             dE          RMSdq      gap      omega  full diag
   1    -28.1289676 -0.281290E+02  0.249E-01    2.08       0.0  T
   2    -28.1290698 -0.102227E-03  0.142E-01    2.05       1.0  T
   3    -28.1291736 -0.103838E-03  0.805E-02    2.07       1.0  T
   4    -28.1291830 -0.941952E-05  0.372E-02    2.06       1.0  T
   5    -28.1292003 -0.172654E-04  0.129E-02    2.06       1.9  T
   6    -28.1292007 -0.429970E-06  0.524E-03    2.06       4.6  T
   7    -28.1292009 -0.185224E-06  0.147E-03    2.07      16.5  T
   8    -28.1292009 -0.104126E-07  0.749E-04    2.07      32.4  T
   9    -28.1292009 -0.947491E-09  0.200E-04    2.06     121.1  T
     SCC iter.                  ...        0 min,  0.258 sec
     gradient                   ...        0 min,  0.003 sec
 * total energy  :   -27.8352368 Eh     change       -0.7310238E-03 Eh
   gradient norm :     0.0168831 Eh/α   predicted    -0.1001617E-02 (  37.02%)
   displ. norm   :     0.1610231 α      lambda       -0.8916827E-03
   maximum displ.:     0.1176675 α      in ANC's #3, #6, #9, ...

........................................................................
.............................. CYCLE   31 ..............................
........................................................................

 iter      E             dE          RMSdq      gap      omega  full diag
   1    -28.1351386 -0.281351E+02  0.127E-01    2.03       0.0  T
   2    -28.1351682 -0.296266E-04  0.706E-02    2.02       1.0  T
   3    -28.1351817 -0.135226E-04  0.468E-02    2.03       1.0  T
   4    -28.1351869 -0.518739E-05  0.168E-02    2.03       1.4  T
   5    -28.1351892 -0.230880E-05  0.718E-03    2.03       3.4  T
   6    -28.1351897 -0.517799E-06  0.343E-03    2.03       7.1  T
   7    -28.1351898 -0.908381E-07  0.998E-04    2.03      24.3  T
   8    -28.1351898 -0.406280E-08  0.509E-04    2.03      47.6  T
     SCC iter.                  ...        0 min,  0.560 sec
     gradient                   ...        0 min,  0.079 sec
 * total energy  :   -27.8352805 Eh     change       -0.4366451E-04 Eh
   gradient norm :     0.0381347 Eh/α   predicted    -0.4574008E-03 ( 947.53%)
   displ. norm   :     0.1416806 α      lambda       -0.7019956E-03
   maximum displ.:     0.1074548 α      in ANC's #3, #2, #6, ...

........................................................................
.............................. CYCLE   32 ..............................
........................................................................

 iter      E             dE          RMSdq      gap      omega  full diag
   1    -28.1361152 -0.281361E+02  0.910E-02    2.06       0.0  T
   2    -28.1361345 -0.193862E-04  0.601E-02    2.07       1.0  T
   3    -28.1361582 -0.236827E-04  0.276E-02    2.06       1.0  T
   4    -28.1361563  0.193435E-05  0.148E-02    2.06       1.6  T
   5    -28.1361596 -0.334640E-05  0.323E-03    2.06       7.5  T
   6    -28.1361597 -0.567329E-07  0.127E-03    2.06      19.1  T
   7    -28.1361597 -0.112936E-07  0.431E-04    2.06      56.3  T
   8    -28.1361597 -0.903153E-09  0.183E-04    2.06     132.6  T
     SCC iter.                  ...        0 min,  0.515 sec
     gradient                   ...        0 min,  0.053 sec
 * total energy  :   -27.8357097 Eh     change       -0.4291579E-03 Eh
   gradient norm :     0.0071304 Eh/α   predicted    -0.3580452E-03 ( -16.57%)
   displ. norm   :     0.4252151 α      lambda       -0.3853117E-03
   maximum displ.:     0.2822334 α      in ANC's #1, #3, #2, ...

........................................................................
.............................. CYCLE   33 ..............................
........................................................................

 iter      E             dE          RMSdq      gap      omega  full diag
   1    -28.1323326 -0.281323E+02  0.145E-01    2.10       0.0  T
   2    -28.1323433 -0.107332E-04  0.657E-02    2.09       1.0  T
   3    -28.1323404  0.289277E-05  0.305E-02    2.10       1.0  T
   4    -28.1323455 -0.510350E-05  0.152E-02    2.09       1.6  T
   5    -28.1323459 -0.442203E-06  0.656E-03    2.09       3.7  T
   6    -28.1323466 -0.634549E-06  0.256E-03    2.09       9.5  T
   7    -28.1323467 -0.811885E-07  0.960E-04    2.09      25.3  T
   8    -28.1323467 -0.238487E-08  0.446E-04    2.09      54.4  T
     SCC iter.                  ...        0 min,  0.376 sec
     gradient                   ...        0 min,  0.002 sec
 * total energy  :   -27.8358965 Eh     change       -0.1868353E-03 Eh
   gradient norm :     0.0145608 Eh/α   predicted    -0.2274941E-03 (  21.76%)
   displ. norm   :     0.1204762 α      lambda       -0.2986216E-03
   maximum displ.:     0.0717502 α      in ANC's #1, #3, #2, ...

........................................................................
.............................. CYCLE   34 ..............................
........................................................................

 iter      E             dE          RMSdq      gap      omega  full diag
   1    -28.1347656 -0.281348E+02  0.588E-02    2.11       0.0  T
   2    -28.1347696 -0.399275E-05  0.339E-02    2.10       1.0  T
   3    -28.1347712 -0.161290E-05  0.196E-02    2.11       1.2  T
   4    -28.1347727 -0.150164E-05  0.627E-03    2.11       3.9  T
   5    -28.1347727  0.206626E-07  0.393E-03    2.11       6.2  T
   6    -28.1347729 -0.211342E-06  0.123E-03    2.11      19.7  T
   7    -28.1347729 -0.124128E-07  0.386E-04    2.11      62.9  T
   8    -28.1347729 -0.158764E-09  0.199E-04    2.11     121.7  T
     SCC iter.                  ...        0 min,  0.322 sec
     gradient                   ...        0 min,  0.051 sec
 * total energy  :   -27.8361182 Eh     change       -0.2217288E-03 Eh
   gradient norm :     0.0067365 Eh/α   predicted    -0.1514788E-03 ( -31.68%)
   displ. norm   :     0.3524214 α      lambda       -0.4170155E-03
   maximum displ.:     0.2594654 α      in ANC's #1, #3, #2, ...

........................................................................
.............................. CYCLE   35 ..............................
........................................................................

 iter      E             dE          RMSdq      gap      omega  full diag
   1    -28.1372273 -0.281372E+02  0.134E-01    2.11       0.0  T
   2    -28.1372408 -0.135123E-04  0.735E-02    2.12       1.0  T
   3    -28.1372323  0.852538E-05  0.423E-02    2.11       1.0  T
   4    -28.1372479 -0.155648E-04  0.169E-02    2.12       1.4  T
   5    -28.1372486 -0.701982E-06  0.116E-02    2.12       2.1  T
   6    -28.1372499 -0.137786E-05  0.218E-03    2.12      11.1  T
   7    -28.1372500 -0.198298E-07  0.854E-04    2.12      28.4  T
   8    -28.1372500  0.386457E-09  0.428E-04    2.12      56.6  T
     SCC iter.                  ...        0 min,  0.528 sec
     gradient                   ...        0 min,  0.094 sec
 * total energy  :   -27.8363712 Eh     change       -0.2530163E-03 Eh
   gradient norm :     0.0142582 Eh/α   predicted    -0.2344098E-03 (  -7.35%)
   displ. norm   :     0.3385683 α      lambda       -0.2336648E-03
   maximum displ.:     0.2410626 α      in ANC's #1, #3, #2, ...

........................................................................
.............................. CYCLE   36 ..............................
........................................................................

 iter      E             dE          RMSdq      gap      omega  full diag
   1    -28.1351461 -0.281351E+02  0.140E-01    2.14       0.0  T
   2    -28.1351639 -0.178204E-04  0.747E-02    2.13       1.0  T
   3    -28.1351716 -0.763822E-05  0.439E-02    2.14       1.0  T
   4    -28.1351797 -0.814083E-05  0.160E-02    2.13       1.5  T
   5    -28.1351803 -0.607961E-06  0.983E-03    2.13       2.5  T
   6    -28.1351814 -0.110492E-05  0.171E-03    2.13      14.2  T
   7    -28.1351815 -0.216305E-07  0.802E-04    2.13      30.2  T
   8    -28.1351815 -0.202702E-08  0.375E-04    2.13      64.7  T
     SCC iter.                  ...        0 min,  0.333 sec
     gradient                   ...        0 min,  0.002 sec
 * total energy  :   -27.8365039 Eh     change       -0.1326955E-03 Eh
   gradient norm :     0.0143694 Eh/α   predicted    -0.1302280E-03 (  -1.86%)
   displ. norm   :     0.1437938 α      lambda       -0.2249368E-03
   maximum displ.:     0.0956360 α      in ANC's #1, #3, #28, ...

........................................................................
.............................. CYCLE   37 ..............................
........................................................................

 iter      E             dE          RMSdq      gap      omega  full diag
   1    -28.1386196 -0.281386E+02  0.687E-02    2.15       0.0  T
   2    -28.1386232 -0.363038E-05  0.352E-02    2.15       1.0  T
   3    -28.1386206  0.256066E-05  0.248E-02    2.15       1.0  T
   4    -28.1386252 -0.458090E-05  0.722E-03    2.15       3.4  T
   5    -28.1386251  0.617994E-07  0.542E-03    2.15       4.5  T
   6    -28.1386255 -0.366936E-06  0.914E-04    2.15      26.5  T
   7    -28.1386255 -0.707099E-08  0.357E-04    2.15      67.9  T
     SCC iter.                  ...        0 min,  0.596 sec
     gradient                   ...        0 min,  0.042 sec
 * total energy  :   -27.8366012 Eh     change       -0.9727824E-04 Eh
   gradient norm :     0.0058282 Eh/α   predicted    -0.1147939E-03 (  18.01%)
   displ. norm   :     0.3394203 α      lambda       -0.2115191E-03
   maximum displ.:     0.2365149 α      in ANC's #1, #3, #28, ...

........................................................................
.............................. CYCLE   38 ..............................
........................................................................

 iter      E             dE          RMSdq      gap      omega  full diag
   1    -28.1364679 -0.281365E+02  0.141E-01    2.15       0.0  T
   2    -28.1364860 -0.181218E-04  0.806E-02    2.17       1.0  T
   3    -28.1364892 -0.319102E-05  0.467E-02    2.16       1.0  T
   4    -28.1365019 -0.127236E-04  0.173E-02    2.16       1.4  T
   5    -28.1365026 -0.747466E-06  0.126E-02    2.16       1.9  T
   6    -28.1365044 -0.173006E-05  0.176E-03    2.16      13.8  T
   7    -28.1365044 -0.126166E-07  0.717E-04    2.16      33.8  T
   8    -28.1365044 -0.239626E-08  0.390E-04    2.16      62.2  T
     SCC iter.                  ...        0 min,  0.531 sec
     gradient                   ...        0 min,  0.063 sec
 * total energy  :   -27.8366647 Eh     change       -0.6349418E-04 Eh
   gradient norm :     0.0101902 Eh/α   predicted    -0.1179386E-03 (  85.75%)
   displ. norm   :     0.0581013 α      lambda       -0.1201945E-03
   maximum displ.:     0.0407501 α      in ANC's #3, #1, #5, ...

........................................................................
.............................. CYCLE   39 ..............................
........................................................................

 iter      E             dE          RMSdq      gap      omega  full diag
   1    -28.1380882 -0.281381E+02  0.400E-02    2.16       0.0  T
   2    -28.1380916 -0.343462E-05  0.284E-02    2.16       1.0  T
   3    -28.1380956 -0.398205E-05  0.131E-02    2.16       1.9  T
   4    -28.1380954  0.183297E-06  0.650E-03    2.16       3.7  T
   5    -28.1380960 -0.541394E-06  0.210E-03    2.16      11.6  T
   6    -28.1380960 -0.312745E-07  0.689E-04    2.16      35.2  T
   7    -28.1380960 -0.108271E-08  0.254E-04    2.16      95.4  T
     SCC iter.                  ...        0 min,  0.462 sec
     gradient                   ...        0 min,  0.002 sec
 * total energy  :   -27.8367354 Eh     change       -0.7069008E-04 Eh
   gradient norm :     0.0071399 Eh/α   predicted    -0.6030141E-04 ( -14.70%)
   displ. norm   :     0.0859788 α      lambda       -0.6409069E-04
   maximum displ.:     0.0585717 α      in ANC's #1, #3, #28, ...

........................................................................
.............................. CYCLE   40 ..............................
........................................................................

 iter      E             dE          RMSdq      gap      omega  full diag
   1    -28.1383804 -0.281384E+02  0.424E-02    2.17       0.0  T
   2    -28.1383812 -0.830869E-06  0.226E-02    2.16       1.1  T
   3    -28.1383808  0.441078E-06  0.120E-02    2.17       2.0  T
   4    -28.1383817 -0.955580E-06  0.374E-03    2.17       6.5  T
   5    -28.1383817 -0.743375E-08  0.479E-04    2.17      50.6  T
   6    -28.1383817 -0.722920E-09  0.278E-04    2.17      87.4  T
     SCC iter.                  ...        0 min,  0.305 sec
     gradient                   ...        0 min,  0.047 sec
 * total energy  :   -27.8367876 Eh     change       -0.5220746E-04 Eh
   gradient norm :     0.0044736 Eh/α   predicted    -0.3228119E-04 ( -38.17%)
   displ. norm   :     0.2201164 α      lambda       -0.1171812E-03
   maximum displ.:     0.1457130 α      in ANC's #1, #3, #28, ...

........................................................................
.............................. CYCLE   41 ..............................
........................................................................

 iter      E             dE          RMSdq      gap      omega  full diag
   1    -28.1380948 -0.281381E+02  0.106E-01    2.18       0.0  T
   2    -28.1380976 -0.277030E-05  0.537E-02    2.18       1.0  T
   3    -28.1380881  0.953039E-05  0.300E-02    2.18       1.0  T
   4    -28.1380994 -0.113707E-04  0.101E-02    2.18       2.4  T
   5    -28.1380994  0.518274E-07  0.339E-03    2.18       7.2  T
   6    -28.1380995 -0.139347E-06  0.602E-04    2.18      40.3  T
   7    -28.1380995 -0.285635E-09  0.322E-04    2.18      75.3  T
     SCC iter.                  ...        0 min,  0.452 sec
     gradient                   ...        0 min,  0.079 sec
 * total energy  :   -27.8368587 Eh     change       -0.7114263E-04 Eh
   gradient norm :     0.0033718 Eh/α   predicted    -0.6142673E-04 ( -13.66%)
   displ. norm   :     0.0599690 α      lambda       -0.3007803E-04
   maximum displ.:     0.0274945 α      in ANC's #1, #3, #2, ...

........................................................................
.............................. CYCLE   42 ..............................
........................................................................

 iter      E             dE          RMSdq      gap      omega  full diag
   1    -28.1386436 -0.281386E+02  0.369E-02    2.19       0.0  T
   2    -28.1386448 -0.119649E-05  0.217E-02    2.19       1.1  T
   3    -28.1386461 -0.122642E-05  0.131E-02    2.19       1.9  T
   4    -28.1386470 -0.891762E-06  0.510E-03    2.19       4.8  T
   5    -28.1386472 -0.203511E-06  0.289E-03    2.19       8.4  T
   6    -28.1386472 -0.744533E-07  0.441E-04    2.19      55.0  T
   7    -28.1386472 -0.222255E-08  0.184E-04    2.19     131.8  T
     SCC iter.                  ...        0 min,  0.309 sec
     gradient                   ...        0 min,  0.061 sec
 * total energy  :   -27.8368703 Eh     change       -0.1150442E-04 Eh
   gradient norm :     0.0037116 Eh/α   predicted    -0.1509365E-04 (  31.20%)
   displ. norm   :     0.0708117 α      lambda       -0.1426523E-04
   maximum displ.:     0.0523359 α      in ANC's #1, #3, #28, ...
 * RMSD in coord.:     0.6071463 α      energy gain  -0.9539098E-02 Eh

generating ANC from exact Hessian ...
Using Lindh-Hessian (1995)
 Shifting diagonal of input Hessian by    1.7304622710961958E-002
 Lowest  eigenvalues of input Hessian
    0.010000    0.000000    0.000000    0.000000    0.000000    0.000000
    0.000000    0.020361    0.022274    0.026314    0.027127    0.029848
    0.032571    0.037473    0.045198    0.057364    0.059791    0.075990
 Highest eigenvalues
    1.814012    1.947397    2.038319    2.055680    2.408718    3.611280


........................................................................
.............................. CYCLE   43 ..............................
........................................................................

 iter      E             dE          RMSdq      gap      omega  full diag
   1    -28.1379608 -0.281380E+02  0.309E-02    2.19       0.0  T
   2    -28.1379611 -0.290268E-06  0.150E-02    2.19       1.6  T
   3    -28.1379606  0.482412E-06  0.715E-03    2.19       3.4  T
   4    -28.1379612 -0.586117E-06  0.298E-03    2.19       8.1  T
   5    -28.1379612 -0.174168E-07  0.783E-04    2.19      31.0  T
   6    -28.1379612 -0.454895E-08  0.343E-04    2.19      70.7  T
     SCC iter.                  ...        0 min,  0.389 sec
     gradient                   ...        0 min,  0.002 sec
 * total energy  :   -27.8368759 Eh     change       -0.5669591E-05 Eh
   gradient norm :     0.0022746 Eh/α   predicted     0.0000000E+00 (-100.00%)
   displ. norm   :     0.0295664 α      lambda       -0.1866115E-04
   maximum displ.:     0.0241404 α      in ANC's #1, #3, #6, ...

........................................................................
.............................. CYCLE   44 ..............................
........................................................................

 iter      E             dE          RMSdq      gap      omega  full diag
   1    -28.1383479 -0.281383E+02  0.196E-02    2.19       0.0  T
   2    -28.1383482 -0.249815E-06  0.101E-02    2.19       2.4  T
   3    -28.1383478  0.347681E-06  0.716E-03    2.19       3.4  T
   4    -28.1383484 -0.571587E-06  0.194E-03    2.19      12.5  T
   5    -28.1383484  0.141598E-07  0.156E-03    2.19      15.5  T
   6    -28.1383484 -0.317744E-07  0.230E-04    2.19     105.5  T
   7    -28.1383484 -0.247820E-09  0.110E-04    2.19     220.0  T
     SCC iter.                  ...        0 min,  0.585 sec
     gradient                   ...        0 min,  0.144 sec
 * total energy  :   -27.8368860 Eh     change       -0.1011840E-04 Eh
   gradient norm :     0.0010462 Eh/α   predicted    -0.9338461E-05 (  -7.71%)
   displ. norm   :     0.0435903 α      lambda       -0.1505639E-04
   maximum displ.:     0.0265063 α      in ANC's #3, #8, #1, ...

........................................................................
.............................. CYCLE   45 ..............................
........................................................................

 iter      E             dE          RMSdq      gap      omega  full diag
   1    -28.1389999 -0.281390E+02  0.242E-02    2.19       0.0  T
   2    -28.1390000 -0.167607E-06  0.134E-02    2.19       1.8  T
   3    -28.1389998  0.213817E-06  0.705E-03    2.19       3.4  T
   4    -28.1390001 -0.298000E-06  0.177E-03    2.19      13.7  T
   5    -28.1390001 -0.577589E-08  0.113E-03    2.19      21.4  T
   6    -28.1390001 -0.147016E-07  0.259E-04    2.19      93.8  T
   7    -28.1390001 -0.317364E-09  0.107E-04    2.19     226.8  T
     SCC iter.                  ...        0 min,  0.732 sec
     gradient                   ...        0 min,  0.160 sec
 * total energy  :   -27.8368980 Eh     change       -0.1195422E-04 Eh
   gradient norm :     0.0024789 Eh/α   predicted    -0.7536841E-05 ( -36.95%)
   displ. norm   :     0.0433522 α      lambda       -0.1428755E-04
   maximum displ.:     0.0273260 α      in ANC's #3, #1, #8, ...

........................................................................
.............................. CYCLE   46 ..............................
........................................................................

 iter      E             dE          RMSdq      gap      omega  full diag
   1    -28.1389497 -0.281389E+02  0.214E-02    2.19       0.0  T
   2    -28.1389499 -0.130089E-06  0.109E-02    2.19       2.2  T
   3    -28.1389497  0.212084E-06  0.500E-03    2.19       4.9  T
   4    -28.1389499 -0.252581E-06  0.213E-03    2.19      11.4  T
   5    -28.1389499 -0.759580E-08  0.135E-03    2.19      17.9  T
   6    -28.1389499 -0.186529E-07  0.234E-04    2.19     103.7  T
   7    -28.1389499 -0.207024E-09  0.125E-04    2.19     193.6  T
     SCC iter.                  ...        0 min,  0.617 sec
     gradient                   ...        0 min,  0.177 sec
 * total energy  :   -27.8369099 Eh     change       -0.1194470E-04 Eh
   gradient norm :     0.0019794 Eh/α   predicted    -0.7157711E-05 ( -40.08%)
   displ. norm   :     0.2323646 α      lambda       -0.4077279E-04
   maximum displ.:     0.1509208 α      in ANC's #3, #1, #8, ...

........................................................................
.............................. CYCLE   47 ..............................
........................................................................

 iter      E             dE          RMSdq      gap      omega  full diag
   1    -28.1374169 -0.281374E+02  0.960E-02    2.18       0.0  T
   2    -28.1374193 -0.244705E-05  0.507E-02    2.18       1.0  T
   3    -28.1374127  0.656650E-05  0.247E-02    2.18       1.0  T
   4    -28.1374203 -0.758479E-05  0.909E-03    2.18       2.7  T
   5    -28.1374204 -0.800386E-07  0.442E-03    2.18       5.5  T
   6    -28.1374206 -0.183866E-06  0.922E-04    2.18      26.3  T
   7    -28.1374206 -0.396885E-08  0.415E-04    2.18      58.5  T
     SCC iter.                  ...        0 min,  1.502 sec
     gradient                   ...        0 min,  0.216 sec
 * total energy  :   -27.8369237 Eh     change       -0.1371277E-04 Eh
   gradient norm :     0.0048864 Eh/α   predicted    -0.2087740E-04 (  52.25%)
   displ. norm   :     0.0447853 α      lambda       -0.2374094E-04
   maximum displ.:     0.0275059 α      in ANC's #3, #1, #8, ...

........................................................................
.............................. CYCLE   48 ..............................
........................................................................

 iter      E             dE          RMSdq      gap      omega  full diag
   1    -28.1381410 -0.281381E+02  0.225E-02    2.18       0.0  T
   2    -28.1381412 -0.185290E-06  0.121E-02    2.18       2.0  T
   3    -28.1381406  0.597198E-06  0.706E-03    2.18       3.4  T
   4    -28.1381413 -0.701727E-06  0.212E-03    2.18      11.4  T
   5    -28.1381413  0.418816E-08  0.120E-03    2.18      20.3  T
   6    -28.1381413 -0.134066E-07  0.269E-04    2.18      90.3  T
   7    -28.1381413 -0.377458E-09  0.121E-04    2.18     200.8  T
     SCC iter.                  ...        0 min,  1.073 sec
     gradient                   ...        0 min,  0.160 sec
 * total energy  :   -27.8369398 Eh     change       -0.1615362E-04 Eh
   gradient norm :     0.0020922 Eh/α   predicted    -0.1189555E-04 ( -26.36%)
   displ. norm   :     0.0228232 α      lambda       -0.1362754E-04
   maximum displ.:     0.0176565 α      in ANC's #5, #4, #3, ...

........................................................................
.............................. CYCLE   49 ..............................
........................................................................

 iter      E             dE          RMSdq      gap      omega  full diag
   1    -28.1385415 -0.281385E+02  0.118E-02    2.18       0.0  T
   2    -28.1385416 -0.575484E-07  0.669E-03    2.18       3.6  T
   3    -28.1385414  0.159036E-06  0.396E-03    2.18       6.1  T
   4    -28.1385416 -0.192031E-06  0.975E-04    2.18      24.9  T
   5    -28.1385416 -0.768785E-08  0.667E-04    2.18      36.4  T
     SCC iter.                  ...        0 min,  0.546 sec
     gradient                   ...        0 min,  0.167 sec
 * total energy  :   -27.8369499 Eh     change       -0.1010821E-04 Eh
   gradient norm :     0.0005024 Eh/α   predicted    -0.6818845E-05 ( -32.54%)
   displ. norm   :     0.0961959 α      lambda       -0.1432605E-04
   maximum displ.:     0.0562983 α      in ANC's #3, #5, #4, ...

........................................................................
.............................. CYCLE   50 ..............................
........................................................................

 iter      E             dE          RMSdq      gap      omega  full diag
   1    -28.1387544 -0.281388E+02  0.288E-02    2.19       0.0  T
   2    -28.1387546 -0.171328E-06  0.162E-02    2.19       1.5  T
   3    -28.1387542  0.447679E-06  0.721E-03    2.19       3.4  T
   4    -28.1387547 -0.492197E-06  0.261E-03    2.19       9.3  T
   5    -28.1387547 -0.564861E-07  0.117E-03    2.19      20.7  T
   6    -28.1387547 -0.129595E-07  0.294E-04    2.19      82.6  T
   7    -28.1387547 -0.441656E-09  0.164E-04    2.19     148.1  T
     SCC iter.                  ...        0 min,  0.580 sec
     gradient                   ...        0 min,  0.084 sec
 * total energy  :   -27.8369632 Eh     change       -0.1326175E-04 Eh
   gradient norm :     0.0020536 Eh/α   predicted    -0.7193736E-05 ( -45.76%)
   displ. norm   :     0.0723450 α      lambda       -0.8550698E-05
   maximum displ.:     0.0475012 α      in ANC's #3, #1, #5, ...

........................................................................
.............................. CYCLE   51 ..............................
........................................................................

 iter      E             dE          RMSdq      gap      omega  full diag
   1    -28.1384590 -0.281385E+02  0.219E-02    2.18       0.0  T
   2    -28.1384591 -0.928767E-07  0.119E-02    2.18       2.0  T
   3    -28.1384591 -0.945762E-08  0.278E-03    2.18       8.7  T
   4    -28.1384591  0.437742E-08  0.118E-03    2.18      20.6  T
   5    -28.1384591 -0.950594E-08  0.302E-04    2.18      80.4  T
   6    -28.1384591 -0.573603E-09  0.157E-04    2.18     154.2  T
     SCC iter.                  ...        0 min,  0.897 sec
     gradient                   ...        0 min,  0.193 sec
 * total energy  :   -27.8369695 Eh     change       -0.6356343E-05 Eh
   gradient norm :     0.0013315 Eh/α   predicted    -0.4297394E-05 ( -32.39%)
   displ. norm   :     0.1053911 α      lambda       -0.5812087E-05
   maximum displ.:     0.0700323 α      in ANC's #3, #4, #5, ...

........................................................................
.............................. CYCLE   52 ..............................
........................................................................

 iter      E             dE          RMSdq      gap      omega  full diag
   1    -28.1380719 -0.281381E+02  0.305E-02    2.18       0.0  T
   2    -28.1380721 -0.135325E-06  0.169E-02    2.18       1.4  T
   3    -28.1380721  0.248985E-07  0.368E-03    2.18       6.6  T
   4    -28.1380720  0.710436E-07  0.318E-03    2.18       7.6  T
   5    -28.1380721 -0.124786E-06  0.417E-04    2.18      58.2  T
   6    -28.1380721 -0.188733E-08  0.198E-04    2.18     122.2  T
     SCC iter.                  ...        0 min,  0.432 sec
     gradient                   ...        0 min,  0.132 sec
 * total energy  :   -27.8369722 Eh     change       -0.2642305E-05 Eh
[...]

------------------------------------------------------------------------
 total energy gain   :        -1.4898933 Eh     -934.9221 kcal/mol
 total RMSD          :         1.3256049 a0        0.7015 Å
 total power (kW/mol):       -73.8059290 (step)  -72.6039 (real)
------------------------------------------------------------------------

 ANCopt (total)                0 d,  0 h,  0 min, 53.880 sec
 optimizer setup                ...        0 min,  0.000 sec (  0.001%)
 model hessian                  ...        0 min,  0.012 sec (  0.022%)
 ANC generation                 ...        0 min,  0.004 sec (  0.007%)
 coordinate transformation      ...        0 min,  0.002 sec (  0.004%)
 single point calculation       ...        0 min, 53.360 sec ( 99.036%)
 optimization log               ...        0 min,  0.018 sec (  0.034%)
 hessian update                 ...        0 min,  0.440 sec (  0.817%)
 rational function              ...        0 min,  0.015 sec (  0.028%)

================
 final structure:
================
17
 xtb: 6.7.1 (edcfbbe)
C           -2.53527324371322        0.82198133581556       -0.56014609938699
C           -1.34289843072976        0.00146622651536       -0.31530923306829
C           -0.68322007089449       -1.02410074031542       -0.99129499745135
C            0.64171487703891       -1.09353159045997       -0.65021663143536
N            1.05743875538474       -0.01552733528502        0.06134714871946
C            2.41057950044851        0.16912039703655        0.51757698302383
N            0.12619497083118        0.81700764170901        0.48896998950430
S           -0.99070903347648       -0.34869943845237        1.81271544911460
O           -0.17762284626822       -1.57209414749706        1.80370580837951
H           -2.63514699790972        1.57518992213850        0.21636453163917
H           -3.42338842828371        0.18905812197950       -0.55300644196382
H           -2.46704931899520        1.32057650434784       -1.52809986029503
H           -1.18031382392823       -1.71926048915151       -1.64156332936382
H            1.35837645740520       -1.83355338573279       -0.95357841199772
H            2.62668872173263       -0.50208469507056        1.35249171370008
H            3.10723144115372       -0.02974602586218       -0.29694495003043
H            2.51824447021103        1.19937769826541        0.85269233089343

 Bond Distances (Angstroems)
 ---------------------------
C1-C2=1.4680         C1-H10=1.0864        C1-H11=1.0906        C1-H12=1.0910        C2-C1=1.4680         C2-C3=1.3942         
C2-N7=1.8628         C2-S8=2.1852         C3-C2=1.3942         C3-C4=1.3699         C3-H13=1.0739        C4-C3=1.3699         
C4-N5=1.3569         C4-H14=1.0739        N5-C4=1.3569         N5-C6=1.4399         N5-N7=1.3203         C6-N5=1.4399         
C6-H15=1.0928        C6-H16=1.0901        C6-H17=1.0887        N7-C2=1.8628         N7-N5=1.3203         N7-S8=2.0877         
S8-C2=2.1852         S8-N7=2.0877         S8-O9=1.4690         O9-S8=1.4690         H10-C1=1.0864        H11-C1=1.0906        
H12-C1=1.0910        H13-C3=1.0739        H14-C4=1.0739        H15-C6=1.0928        H16-C6=1.0901        H17-C6=1.0887        
 C  H  Rav=1.0859 sigma=0.0072  Rmin=1.0739  Rmax=1.0928     8
 C  C  Rav=1.4107 sigma=0.0417  Rmin=1.3699  Rmax=1.4680     3
 N  C  Rav=1.5532 sigma=0.2215  Rmin=1.3569  Rmax=1.8628     3
 N  N  Rav=1.3203 sigma=0.0000  Rmin=1.3203  Rmax=1.3203     1
 S  C  Rav=2.1852 sigma=0.0000  Rmin=2.1852  Rmax=2.1852     1
 S  N  Rav=2.0877 sigma=0.0000  Rmin=2.0877  Rmax=2.0877     1
 S  O  Rav=1.4690 sigma=0.0000  Rmin=1.4690  Rmax=1.4690     1

 selected bond angles (degree)
 --------------------
H10-C1-C2=110.06               H11-C1-C2=109.63               H11-C1-H10=108.83              H12-C1-C2=110.65               
H12-C1-H10=108.85              H12-C1-H11=108.78              C3-C2-C1=135.61                N7-C2-C1=117.90                
N7-C2-C3= 99.10                S8-C2-C1=112.51                S8-C2-C3=106.14                S8-C2-N7= 61.48                
C4-C3-C2=111.97                H13-C3-C2=123.42               H13-C3-C4=124.45               N5-C4-C3=112.74                
H14-C4-C3=127.59               H14-C4-N5=119.41               C6-N5-C4=123.78                N7-N5-C4=117.05                
N7-N5-C6=118.64                H15-C6-N5=110.44               H16-C6-N5=109.90               H16-C6-H15=109.42              
H17-C6-N5=108.17               H17-C6-H15=109.06              H17-C6-H16=109.84              N5-N7-C2= 98.07                
S8-N7-C2= 66.88                S8-N7-N5=103.33                N7-S8-C2= 51.63                O9-S8-C2=102.51                
O9-S8-N7= 99.50                

 selected dihedral angles (degree)
 ---------------------------------
C3-C2-C1-H10=184.67           C3-C2-C1-H11= 65.00           C3-C2-C1-H12=305.01           N7-C2-C1-H10=327.49           
N7-C2-C1-H11=207.81           N7-C2-C1-H12= 87.83           S8-C2-C1-H10= 36.06           S8-C2-C1-H11=276.39           
S8-C2-C1-H12=156.40           C4-C3-C2-C1=155.03            C4-C3-C2-N7=  7.77            C4-C3-C2-S8=304.97            
H13-C3-C2-C1=330.60           H13-C3-C2-N7=183.35           H13-C3-C2-S8=120.54           N5-C4-C3-C2=348.58            
N5-C4-C3-H13=173.06           H14-C4-C3-C2=174.42           H14-C4-C3-H13=358.89          C6-N5-C4-C3=181.33            
C6-N5-C4-H14=356.02           N7-N5-C4-C3=  9.84            N7-N5-C4-H14=184.54           H15-C6-N5-C4=286.47           
H15-C6-N5-N7= 97.82           H16-C6-N5-C4= 47.28           H16-C6-N5-N7=218.63           H17-C6-N5-C4=167.20           
H17-C6-N5-N7=338.55           C2-N7-N5-C4=355.96            C2-N7-N5-C6=184.03            S8-N7-N5-C4= 64.00            
S8-N7-N5-C6=252.07            N7-S8-C2-C1=249.44            N7-S8-C2-C3= 91.73            O9-S8-C2-C1=157.15            
O9-S8-C2-C3=359.45            O9-S8-C2-N7=267.72            C2-S8-N7-N5=266.81            O9-S8-N7-C2= 98.50            
O9-S8-N7-N5=  5.31            
           -------------------------------------------------
          |                Final Singlepoint                |
           -------------------------------------------------

          ...................................................
          :                      SETUP                      :
          :.................................................:
          :  # basis functions                  50          :
          :  # atomic orbitals                  49          :
          :  # shells                           27          :
          :  # electrons                        50          :
          :  max. iterations                   250          :
          :  Hamiltonian                  GFN2-xTB          :
          :  restarted?                      false          :
          :  GBSA solvation                  false          :
          :  PC potential                    false          :
          :  electronic temp.          300.0000000     K    :
          :  accuracy                    1.0000000          :
          :  -> integral cutoff          0.2500000E+02      :
          :  -> integral neglect         0.1000000E-07      :
          :  -> SCF convergence          0.1000000E-05 Eh   :
          :  -> wf. convergence          0.1000000E-03 e    :
          :  Broyden damping             0.4000000          :
          :  net charge                          0          :
          :  unpaired electrons                  0          :
          ...................................................

 iter      E             dE          RMSdq      gap      omega  full diag
   1    -28.1385451 -0.281385E+02  0.664E-05    2.18       0.0  T
   2    -28.1385451 -0.355271E-11  0.364E-05    2.18     666.4  T
   3    -28.1385451 -0.267164E-11  0.286E-05    2.18     849.0  T

   *** convergence criteria satisfied after 3 iterations ***

         #    Occupation            Energy/Eh            Energy/eV
      -------------------------------------------------------------
         1        2.0000           -0.7250693             -19.7301
       ...           ...                  ...                  ...
        19        2.0000           -0.4700933             -12.7919
        20        2.0000           -0.4634168             -12.6102
        21        2.0000           -0.4424194             -12.0388
        22        2.0000           -0.4190302             -11.4024
        23        2.0000           -0.4143697             -11.2756
        24        2.0000           -0.3871353             -10.5345
        25        2.0000           -0.3300735              -8.9818 (HOMO)
        26                         -0.2499064              -6.8003 (LUMO)
        27                         -0.2430058              -6.6125
        28                         -0.2095050              -5.7009
        29                         -0.1648325              -4.4853
        30                         -0.1240374              -3.3752
       ...                                ...                  ...
        49                          0.8608884              23.4260
      -------------------------------------------------------------
                  HL-Gap            0.0801671 Eh            2.1815 eV
             Fermi-level           -0.2899899 Eh           -7.8910 eV

 SCC (total)                   0 d,  0 h,  0 min,  0.308 sec
 SCC setup                      ...        0 min,  0.009 sec (  2.947%)
 Dispersion                     ...        0 min,  0.026 sec (  8.539%)
 classical contributions        ...        0 min,  0.010 sec (  3.356%)
 integral evaluation            ...        0 min,  0.027 sec (  8.867%)
 iterations                     ...        0 min,  0.177 sec ( 57.563%)
 molecular gradient             ...        0 min,  0.057 sec ( 18.407%)
 printout                       ...        0 min,  0.001 sec (  0.176%)

         :::::::::::::::::::::::::::::::::::::::::::::::::::::
         ::                     SUMMARY                     ::
         :::::::::::::::::::::::::::::::::::::::::::::::::::::
         :: total energy             -27.836974721497 Eh    ::
         :: gradient norm              0.000783704888 Eh/a0 ::
         :: HOMO-LUMO gap              2.181456707743 eV    ::
         ::.................................................::
         :: SCC energy               -28.138496677671 Eh    ::
         :: -> isotropic ES            0.042794572801 Eh    ::
         :: -> anisotropic ES         -0.002506035985 Eh    ::
         :: -> anisotropic XC          0.015057357655 Eh    ::
         :: -> dispersion             -0.015440117649 Eh    ::
         :: repulsion energy           0.298398631012 Eh    ::
         :: add. restraining           0.003123325162 Eh    ::
         :: total charge              -0.000000000000 e     ::
         :::::::::::::::::::::::::::::::::::::::::::::::::::::

           -------------------------------------------------
          |                Property Printout                |
           -------------------------------------------------

    * Orbital Energies and Occupations

         #    Occupation            Energy/Eh            Energy/eV
      -------------------------------------------------------------
         1        2.0000           -0.7250693             -19.7301
       ...           ...                  ...                  ...
        13        2.0000           -0.5074524             -13.8085
        14        2.0000           -0.5059090             -13.7665
        15        2.0000           -0.4949697             -13.4688
        16        2.0000           -0.4850829             -13.1998
        17        2.0000           -0.4824469             -13.1280
        18        2.0000           -0.4765442             -12.9674
        19        2.0000           -0.4700933             -12.7919
        20        2.0000           -0.4634168             -12.6102
        21        2.0000           -0.4424194             -12.0388
        22        2.0000           -0.4190302             -11.4024
        23        2.0000           -0.4143697             -11.2756
        24        2.0000           -0.3871353             -10.5345
        25        2.0000           -0.3300735              -8.9818 (HOMO)
        26                         -0.2499064              -6.8003 (LUMO)
        27                         -0.2430058              -6.6125
        28                         -0.2095050              -5.7009
        29                         -0.1648325              -4.4853
        30                         -0.1240374              -3.3752
        31                          0.0108696               0.2958
        32                          0.0287874               0.7833
        33                          0.0723244               1.9680
        34                          0.0925459               2.5183
        35                          0.1094836               2.9792
        36                          0.1207113               3.2847
       ...                                ...                  ...
        49                          0.8608884              23.4260
      -------------------------------------------------------------
                  HL-Gap            0.0801671 Eh            2.1815 eV
             Fermi-level           -0.2899899 Eh           -7.8910 eV

     #   Z          covCN         q      C6AA      α(0)
     1   6 C        3.753    -0.107    22.610     6.780
     2   6 C        3.404     0.038    23.306     7.446
     3   6 C        2.931    -0.059    29.476     8.904
     4   6 C        2.914     0.014    27.698     8.630
     5   7 N        2.865     0.102    19.490     6.557
     6   6 C        3.697    -0.057    21.778     6.675
     7   7 N        2.407    -0.257    26.794     7.686
     8  16 S        2.433     0.258   130.978    19.262
     9   8 O        0.859    -0.445    22.600     6.374
    10   1 H        0.925     0.074     2.046     2.237
    11   1 H        0.924     0.066     2.135     2.285
    12   1 H        0.924     0.063     2.169     2.303
    13   1 H        0.926     0.052     2.297     2.370
    14   1 H        0.926     0.048     2.339     2.392
    15   1 H        0.924     0.074     2.040     2.234
    16   1 H        0.925     0.060     2.204     2.321
    17   1 H        0.925     0.079     1.990     2.206

 Mol. C6AA /au·bohr⁶  :       3881.007331
 Mol. C8AA /au·bohr⁸  :     102754.701461
 Mol. α(0) /au        :         96.662411


Wiberg/Mayer (AO) data.
largest (>0.10) Wiberg bond orders for each atom

 ---------------------------------------------------------------------------
     #   Z sym  total        # sym  WBO       # sym  WBO       # sym  WBO
 ---------------------------------------------------------------------------
     1   6 C    3.993 --     2 C    1.059    10 H    0.972    12 H    0.962
                            11 H    0.958
     2   6 C    3.934 --     3 C    1.325     1 C    1.059     7 N    0.785
                             8 S    0.576
     3   6 C    3.977 --     4 C    1.508     2 C    1.325    13 H    0.951
     4   6 C    3.966 --     3 C    1.508     5 N    1.222    14 H    0.966
     5   7 N    3.666 --     4 C    1.222     7 N    1.220     6 C    0.987
                             8 S    0.120
     6   6 C    3.964 --     5 N    0.987    17 H    0.979    16 H    0.977
                            15 H    0.969
     7   7 N    2.972 --     5 N    1.220     2 C    0.785     8 S    0.660
                             9 O    0.110
     8  16 S    3.375 --     9 O    1.807     7 N    0.660     2 C    0.576
                             5 N    0.120
     9   8 O    2.101 --     8 S    1.807     7 N    0.110
    10   1 H    0.994 --     1 C    0.972
    11   1 H    0.994 --     1 C    0.958
    12   1 H    0.996 --     1 C    0.962
    13   1 H    0.997 --     3 C    0.951
    14   1 H    0.997 --     4 C    0.966
    15   1 H    0.994 --     6 C    0.969
    16   1 H    0.996 --     6 C    0.977
    17   1 H    0.993 --     6 C    0.979
 ---------------------------------------------------------------------------

Topologies differ in total number of bonds
Writing topology from bond orders to xtbtopo.mol

molecular dipole:
                 x           y           z       tot (Debye)
 q only:        0.081       0.821      -0.914
   full:        0.222       0.399      -1.045       2.898
molecular quadrupole (traceless):
                xx          xy          yy          xz          yz          zz
 q only:       11.407      -1.859      -6.799       0.804       6.130      -4.608
  q+dip:       11.685      -1.636      -7.146       1.488       6.174      -4.539
   full:       11.512      -1.415      -7.478       1.200       5.358      -4.034

           -------------------------------------------------
          |                Geometry Summary                 |
           -------------------------------------------------

      molecular mass/u    :      144.1948042
   center of mass at/Å    :       -0.2514058      -0.2664393       0.4723099
  moments of inertia/u·Å² :        0.2500057E+03   0.3545947E+03   0.4400043E+03
rotational constants/cm⁻¹ :        0.6742899E-01   0.4754056E-01   0.3831243E-01

 * 15 selected distances

     #   Z          #   Z                                           value/Å
     1   6 C        2   6 C                                       1.4679742
     2   6 C        3   6 C                                       1.3942454
     3   6 C        4   6 C                                       1.3698934
     4   6 C        5   7 N                                       1.3569240
     5   7 N        6   6 C                                       1.4398718
     5   7 N        7   7 N                                       1.3202996
     8  16 S        9   8 O                                       1.4689742 (max)
     1   6 C       10   1 H                                       1.0864009
     1   6 C       11   1 H                                       1.0905923
     1   6 C       12   1 H                                       1.0909566
     3   6 C       13   1 H                                       1.0738708 (min)
     4   6 C       14   1 H                                       1.0739016
     6   6 C       15   1 H                                       1.0928414
     6   6 C       16   1 H                                       1.0901000
     6   6 C       17   1 H                                       1.0887260

 * 5 distinct bonds (by element types)

   Z      Z             #   av. dist./Å        max./Å        min./Å
   1 H    6 C           8     1.0859237     1.0928414     1.0738708
   6 C    6 C           3     1.4107043     1.4679742     1.3698934
   6 C    7 N           2     1.3983979     1.4398718     1.3569240
   7 N    7 N           1     1.3202996     1.3202996     1.3202996
   8 O   16 S           1     1.4689742     1.4689742     1.4689742


optimized geometry written to: xtbopt.xyz


           -------------------------------------------------
          | TOTAL ENERGY              -27.836974721497 Eh   |
          | GRADIENT NORM               0.000783704888 Eh/α |
          | HOMO-LUMO GAP               2.181456707743 eV   |
           -------------------------------------------------

------------------------------------------------------------------------
 * finished run on 2026/01/15 at 11:06:08.496     
------------------------------------------------------------------------
 total:
 * wall-time:     0 d,  0 h,  0 min, 55.512 sec
 *  cpu-time:     0 d,  0 h,  4 min,  0.450 sec
 * ratio c/w:     4.332 speedup
 SCF:
 * wall-time:     0 d,  0 h,  0 min,  1.177 sec
 *  cpu-time:     0 d,  0 h,  0 min,  5.722 sec
 * ratio c/w:     4.860 speedup
 ANC optimizer:
 * wall-time:     0 d,  0 h,  0 min, 54.200 sec
 *  cpu-time:     0 d,  0 h,  3 min, 54.105 sec
 * ratio c/w:     4.319 speedup

