18
 energy: -28.297047477530 gnorm: 0.000777315106 xtb: 6.7.1 (edcfbbe)
C           -2.52632794452500        0.70042847381865       -0.48716653326621
C           -1.33746903380884       -0.01405500423251        0.00705869131985
C           -0.77549275445905       -1.24338337822409       -0.35148456275048
C            0.58087508733905       -1.28924630303411       -0.17835633077487
N            1.16207201214682       -0.07714569629889       -0.02434189492027
C            2.56479991379920        0.20228991806568       -0.11147636349298
N            0.27488876233846        0.92140742147134        0.26082817363767
S           -0.74900594961427        0.44023608161208        2.05319792051977
O            0.19803531904343       -0.64517665060048        2.36050490441190
H           -2.59048408905930        1.68926916497285       -0.04149448427034
H           -3.41676288432624        0.14078118981804       -0.20165519041542
H           -2.51223597314447        0.79641059737857       -1.57465037090663
H           -1.35664891022966       -2.07102357985778       -0.71384843789471
H            1.21105711828762       -2.15168588718921       -0.29537956974881
H            3.08180641673497       -0.66075644872241       -0.52545206140387
H            2.73184035425858        1.06724106359802       -0.76171102909840
H            2.97894575790506        0.42517977440119        0.87621726389691
H            0.48010779731818        1.76922926302476       -0.29079012482464
