      -----------------------------------------------------------      
     |                   =====================                   |     
     |                           x T B                           |     
     |                   =====================                   |     
     |                         S. Grimme                         |     
     |          Mulliken Center for Theoretical Chemistry        |     
     |                    University of Bonn                     |     
      -----------------------------------------------------------      

   * xtb version 6.7.1 (edcfbbe) compiled by 'conda@c0858423619e' on 2025-09-04

   xtb is free software: you can redistribute it and/or modify it under
   the terms of the GNU Lesser General Public License as published by
   the Free Software Foundation, either version 3 of the License, or
   (at your option) any later version.
   
   xtb is distributed in the hope that it will be useful,
   but WITHOUT ANY WARRANTY; without even the implied warranty of
   MERCHANTABILITY or FITNESS FOR A PARTICULAR PURPOSE.  See the
   GNU Lesser General Public License for more details.
   
   Cite this work as:
   * C. Bannwarth, E. Caldeweyher, S. Ehlert, A. Hansen, P. Pracht,
     J. Seibert, S. Spicher, S. Grimme, WIREs Comput. Mol. Sci., 2020, 11,
     e01493. DOI: 10.1002/wcms.1493
   
   for GFN2-xTB:
   * C. Bannwarth, S. Ehlert and S. Grimme., J. Chem. Theory Comput., 2019,
     15, 1652-1671. DOI: 10.1021/acs.jctc.8b01176
   for GFN1-xTB:
   * S. Grimme, C. Bannwarth, P. Shushkov, J. Chem. Theory Comput., 2017,
     13, 1989-2009. DOI: 10.1021/acs.jctc.7b00118
   for GFN0-xTB:
   * P. Pracht, E. Caldeweyher, S. Ehlert, S. Grimme, ChemRxiv, 2019, preprint.
     DOI: 10.26434/chemrxiv.8326202.v1
   for GFN-FF:
   * S. Spicher and S. Grimme, Angew. Chem. Int. Ed., 2020, 59, 15665-15673.
     DOI: 10.1002/anie.202004239
   
   for ALPB and GBSA implicit solvation:
   * S. Ehlert, M. Stahn, S. Spicher, S. Grimme, J. Chem. Theory Comput.,
     2021, 17, 4250-4261. DOI: 10.1021/acs.jctc.1c00471
   
   for ddCOSMO and CPCM-X implicit solvation:
   * M. Stahn, S. Ehlert, S. Grimme, J. Phys. Chem. A,
     2023, XX, XXXX-XXXX. DOI: 10.1021/acs.jpca.3c04382
   
   for DFT-D4:
   * E. Caldeweyher, C. Bannwarth and S. Grimme, J. Chem. Phys., 2017,
     147, 034112. DOI: 10.1063/1.4993215
   * E. Caldeweyher, S. Ehlert, A. Hansen, H. Neugebauer, S. Spicher,
     C. Bannwarth and S. Grimme, J. Chem. Phys., 2019, 150, 154122.
     DOI: 10.1063/1.5090222
   * E. Caldeweyher, J.-M. Mewes, S. Ehlert and S. Grimme, Phys. Chem. Chem. Phys.
     2020, 22, 8499-8512. DOI: 10.1039/D0CP00502A
   
   for sTDA-xTB:
   * S. Grimme and C. Bannwarth, J. Chem. Phys., 2016, 145, 054103.
     DOI: 10.1063/1.4959605
   
   in the mass-spec context:
   * V. Asgeirsson, C. Bauer and S. Grimme, Chem. Sci., 2017, 8, 4879.
     DOI: 10.1039/c7sc00601b
   * J. Koopman and S. Grimme, ACS Omega 2019, 4, 12, 15120-15133.
     DOI: 10.1021/acsomega.9b02011
   
   for metadynamics refer to:
   * S. Grimme, J. Chem. Theory Comput., 2019, 155, 2847-2862
     DOI: 10.1021/acs.jctc.9b00143
   
   for SPH calculations refer to:
   * S. Spicher and S. Grimme, J. Chem. Theory Comput., 2021, 17, 1701-1714
     DOI: 10.1021/acs.jctc.0c01306
   
   for ONIOM refer to:
   * C. Plett, A. Katbashev, S. Ehlert, S. Grimme, M. Bursch,
     Phys. Chem. Chem. Phys., 2023, 25, 17860-17868. DOI: 10.1039/D3CP02178E
   
   for DIPRO refer to:
   * J. Kohn, N. Gildemeister, S. Grimme, D. Fazzi, A. Hansen,
     J. Chem. Phys., 2023, just accepted.
   
   for PTB refer to:
   * S. Grimme, M. Mueller, A. Hansen, J. Chem. Phys., 2023, 158, 124111.
     DOI: 10.1063/5.0137838
   
   with help from (in alphabetical order)
   P. Atkinson, C. Bannwarth, F. Bohle, G. Brandenburg, E. Caldeweyher
   M. Checinski, S. Dohm, S. Ehlert, S. Ehrlich, I. Gerasimov, C. Hölzer
   A. Katbashev, J. Kohn, J. Koopman, C. Lavigne, S. Lehtola, F. März, M. Müller,
   F. Musil, H. Neugebauer, J. Pisarek, C. Plett, P. Pracht, F. Pultar,
   J. Seibert, P. Shushkov, S. Spicher, M. Stahn, M. Steiner, T. Strunk,
   J. Stückrath, T. Rose, and J. Unsleber
   
 * started run on 2026/01/15 at 10:43:00.596     
   ID    Z sym.   atoms
    1    6 C      1-4, 6
    2    7 N      5, 7
    3   16 S      8
    4    8 O      9
    5    1 H      10-18
constraining bond 8 2 to    2.2000000 Å, actual value:    1.7830024 Å
constraining bond 8 7 to    2.1000000 Å, actual value:    1.8089801 Å
constraining bond 2 7 to    1.9000000 Å, actual value:    2.5378104 Å

           -------------------------------------------------
          |                Calculation Setup                |
           -------------------------------------------------

          program call               : /h/28/cicsy/miniforge3/envs/elagente/bin/xtb N4-Me_TDSO_pathwayB_opt.xyz --opt --gfn 2 -P 4 --chrg 0 --input detailed_input.inp
          coordinate file            : N4-Me_TDSO_pathwayB_opt.xyz
          omp threads                :                     4


           -------------------------------------------------
          |                 G F N 2 - x T B                 |
           -------------------------------------------------

        Reference                      10.1021/acs.jctc.8b01176
      * Hamiltonian:
        H0-scaling (s, p, d)           1.850000    2.230000    2.230000
        zeta-weighting                 0.500000
      * Dispersion:
        s8                             2.700000
        a1                             0.520000
        a2                             5.000000
        s9                             5.000000
      * Repulsion:
        kExp                           1.500000    1.000000
        rExp                           1.000000
      * Coulomb:
        alpha                          2.000000
        third order                    shell-resolved
        anisotropic                    true
        a3                             3.000000
        a5                             4.000000
        cn-shift                       1.200000
        cn-exp                         4.000000
        max-rad                        5.000000


          ...................................................
          :                      SETUP                      :
          :.................................................:
          :  # basis functions                  51          :
          :  # atomic orbitals                  50          :
          :  # shells                           28          :
          :  # electrons                        51          :
          :  max. iterations                   250          :
          :  Hamiltonian                  GFN2-xTB          :
          :  restarted?                      false          :
          :  GBSA solvation                  false          :
          :  PC potential                    false          :
          :  electronic temp.          300.0000000     K    :
          :  accuracy                    1.0000000          :
          :  -> integral cutoff          0.2500000E+02      :
          :  -> integral neglect         0.1000000E-07      :
          :  -> SCF convergence          0.1000000E-05 Eh   :
          :  -> wf. convergence          0.1000000E-03 e    :
          :  Broyden damping             0.4000000          :
          :  net charge                          0          :
          :  unpaired electrons                  0          :
          ...................................................

 iter      E             dE          RMSdq      gap      omega  full diag
   1    -28.5970526 -0.285971E+02  0.416E+00    2.77       0.0  T
   2    -28.6625421 -0.654895E-01  0.303E+00    2.43       1.0  T
   3    -28.6730175 -0.104754E-01  0.154E+00    2.58       1.0  T
   4    -28.6708372  0.218028E-02  0.737E-01    2.35       1.0  T
   5    -28.6783743 -0.753713E-02  0.279E-01    2.38       1.0  T
   6    -28.6787434 -0.369100E-03  0.104E-01    2.41       1.0  T
   7    -28.6788174 -0.739695E-04  0.416E-02    2.40       1.0  T
   8    -28.6788177 -0.326191E-06  0.240E-02    2.40       1.0  T
   9    -28.6788200 -0.227425E-05  0.824E-03    2.40       2.9  T
  10    -28.6788203 -0.320466E-06  0.289E-03    2.40       8.1  T
  11    -28.6788203 -0.150974E-07  0.991E-04    2.40      23.8  T
  12    -28.6788203 -0.270994E-08  0.289E-04    2.40      81.5  T

   *** convergence criteria satisfied after 12 iterations ***

         #    Occupation            Energy/Eh            Energy/eV
      -------------------------------------------------------------
         1        2.0000           -0.7425824             -20.2067
       ...           ...                  ...                  ...
        20        2.0000           -0.4548867             -12.3781
        21        2.0000           -0.4457058             -12.1283
        22        2.0000           -0.4239625             -11.5366
        23        2.0000           -0.4126270             -11.2282
        24        2.0000           -0.3791035             -10.3159
        25        2.0000           -0.3668017              -9.9812
        26        1.0000           -0.2937383              -7.9930 (HOMO)
        27                         -0.2054956              -5.5918 (LUMO)
        28                         -0.1693993              -4.6096
        29                         -0.1327200              -3.6115
        30                         -0.0502542              -1.3675
        31                         -0.0122411              -0.3331
       ...                                ...                  ...
        50                          0.9166667              24.9438
      -------------------------------------------------------------
                  HL-Gap            0.0882427 Eh            2.4012 eV
             Fermi-level           -0.2899434 Eh           -7.8898 eV

 SCC (total)                   0 d,  0 h,  0 min,  1.525 sec
 SCC setup                      ...        0 min,  0.028 sec (  1.830%)
 Dispersion                     ...        0 min,  0.034 sec (  2.228%)
 classical contributions        ...        0 min,  0.024 sec (  1.598%)
 integral evaluation            ...        0 min,  0.047 sec (  3.086%)
 iterations                     ...        0 min,  1.224 sec ( 80.226%)
 molecular gradient             ...        0 min,  0.168 sec ( 11.003%)
 printout                       ...        0 min,  0.000 sec (  0.028%)

         :::::::::::::::::::::::::::::::::::::::::::::::::::::
         ::                     SUMMARY                     ::
         :::::::::::::::::::::::::::::::::::::::::::::::::::::
         :: total energy             -27.173641890618 Eh    ::
         :: gradient norm              1.574171197597 Eh/a0 ::
         :: HOMO-LUMO gap              2.401206706771 eV    ::
         ::.................................................::
         :: SCC energy               -28.678788960075 Eh    ::
         :: -> isotropic ES            0.047128285448 Eh    ::
         :: -> anisotropic ES          0.002164749818 Eh    ::
         :: -> anisotropic XC          0.015103803057 Eh    ::
         :: -> dispersion             -0.016397982720 Eh    ::
         :: repulsion energy           0.317086705889 Eh    ::
         :: add. restraining           1.188060363567 Eh    ::
         :: total charge               0.000000000000 e     ::
         :::::::::::::::::::::::::::::::::::::::::::::::::::::

      ----------------------------------------------------------- 
     |                   =====================                   |
     |                        A N C O P T                        |
     |                   =====================                   |
     |               Approximate Normal Coordinate               |
     |                Rational Function Optimizer                |
      ----------------------------------------------------------- 
      ----------------------------------------------------------- 
     |                   =====================                   |
     |                        A N C O P T                        |
     |                   =====================                   |
     |               Approximate Normal Coordinate               |
     |                Rational Function Optimizer                |
      ----------------------------------------------------------- 

          ...................................................
          :                      SETUP                      :
          :.................................................:
          :   optimization level            normal          :
          :   max. optcycles                   200          :
          :   ANC micro-cycles                  20          :
          :   degrees of freedom                48          :
          :.................................................:
          :   RF solver                   davidson          :
          :   write xtbopt.log                true          :
          :   linear?                        false          :
          :   energy convergence         0.5000000E-05 Eh   :
          :   grad. convergence          0.1000000E-02 Eh/α :
          :   maxmium RF displ.          1.0000000          :
          :   Hlow (freq-cutoff)         0.1000000E-01      :
          :   Hmax (freq-cutoff)         5.0000000          :
          :   S6 in model hess.         20.0000000          :
          ...................................................

generating ANC from exact Hessian ...
Using Lindh-Hessian (1995)
 Shifting diagonal of input Hessian by   0.23282876769895713     
 Lowest  eigenvalues of input Hessian
    0.010000    0.000000    0.000000    0.000000    0.000000    0.000000
    0.000000    0.237345    0.240939    0.244236    0.246263    0.250267
    0.255235    0.265223    0.273067    0.281068    0.289645    0.298061
 Highest eigenvalues
    1.930415    2.148978    2.273592    2.508812    3.450131    4.385740


........................................................................
.............................. CYCLE    1 ..............................
........................................................................

 iter      E             dE          RMSdq      gap      omega  full diag
   1    -28.6788203 -0.286788E+02  0.670E-05    2.40       0.0  T
   2    -28.6788203 -0.317257E-11  0.412E-05    2.40     572.8  T
   3    -28.6788203 -0.163425E-12  0.142E-05    2.40    1664.1  T
     SCC iter.                  ...        0 min,  0.272 sec
     gradient                   ...        0 min,  0.203 sec
 * total energy  :   -27.1736419 Eh     change       -0.1059526E-09 Eh
   gradient norm :     1.5740727 Eh/α   predicted     0.0000000E+00 (-100.00%)
   displ. norm   :     0.6660034 α      lambda       -0.1006596E+01
   maximum displ.:     0.3353284 α      in ANC's #33, #41, #32, ...

........................................................................
.............................. CYCLE    2 ..............................
........................................................................

 iter      E             dE          RMSdq      gap      omega  full diag
   1    -28.6183007 -0.286183E+02  0.124E+00    1.47       0.0  T
   2    -28.6211147 -0.281400E-02  0.760E-01    1.60       1.0  T
   3    -28.6206758  0.438903E-03  0.392E-01    1.53       1.0  T
   4    -28.6218451 -0.116933E-02  0.177E-01    1.57       1.0  T
   5    -28.6221706 -0.325489E-03  0.774E-02    1.58       1.0  T
   6    -28.6222112 -0.405497E-04  0.374E-02    1.57       1.0  T
   7    -28.6222181 -0.695296E-05  0.936E-03    1.57       2.5  T
   8    -28.6222185 -0.351742E-06  0.442E-03    1.57       5.3  T
   9    -28.6222185 -0.338777E-07  0.192E-03    1.57      12.3  T
  10    -28.6222185 -0.625255E-08  0.507E-04    1.57      46.5  T
  11    -28.6222185 -0.709854E-09  0.198E-04    1.57     119.0  T
     SCC iter.                  ...        0 min,  1.196 sec
     gradient                   ...        0 min,  0.171 sec
 * total energy  :   -27.9588998 Eh     change       -0.7852579E+00 Eh
   gradient norm :     0.8165988 Eh/α   predicted    -0.7265413E+00 (  -7.48%)
   displ. norm   :     0.5765122 α      lambda       -0.4457486E+00
   maximum displ.:     0.2821918 α      in ANC's #33, #41, #32, ...

........................................................................
.............................. CYCLE    3 ..............................
........................................................................

 iter      E             dE          RMSdq      gap      omega  full diag
   1    -28.5267720 -0.285268E+02  0.165E+00    1.26       0.0  T
   2    -28.5216947  0.507738E-02  0.929E-01    1.37       1.0  T
   3    -28.5280342 -0.633958E-02  0.925E-01    1.21       1.0  T
   4    -28.5365231 -0.848882E-02  0.241E-01    1.28       1.0  T
   5    -28.5369564 -0.433384E-03  0.122E-01    1.28       1.0  T
   6    -28.5371187 -0.162220E-03  0.408E-02    1.28       1.0  T
   7    -28.5371237 -0.507404E-05  0.133E-02    1.28       1.8  T
   8    -28.5371249 -0.117383E-05  0.534E-03    1.28       4.4  T
   9    -28.5371251 -0.169458E-06  0.264E-03    1.28       8.9  T
  10    -28.5371251 -0.339028E-07  0.781E-04    1.28      30.2  T
  11    -28.5371251 -0.309532E-08  0.183E-04    1.28     128.7  T
     SCC iter.                  ...        0 min,  1.716 sec
     gradient                   ...        0 min,  0.178 sec
 * total energy  :   -28.2117069 Eh     change       -0.2528070E+00 Eh
   gradient norm :     0.1572970 Eh/α   predicted    -0.2969503E+00 (  17.46%)
   displ. norm   :     0.4851189 α      lambda       -0.3470767E-01
   maximum displ.:     0.4386262 α      in ANC's #1, #10, #26, ...

........................................................................
.............................. CYCLE    4 ..............................
........................................................................

 iter      E             dE          RMSdq      gap      omega  full diag
   1    -28.5249175 -0.285249E+02  0.579E-01    1.35       0.0  T
   2    -28.5245817  0.335722E-03  0.493E-01    1.26       1.0  T
   3    -28.5256100 -0.102829E-02  0.264E-01    1.33       1.0  T
   4    -28.5259305 -0.320415E-03  0.154E-01    1.29       1.0  T
   5    -28.5262902 -0.359702E-03  0.613E-02    1.31       1.0  T
   6    -28.5263253 -0.351102E-04  0.213E-02    1.30       1.1  T
   7    -28.5263264 -0.117717E-05  0.983E-03    1.30       2.4  T
   8    -28.5263267 -0.243598E-06  0.561E-03    1.30       4.2  T
   9    -28.5263269 -0.195101E-06  0.226E-03    1.30      10.4  T
  10    -28.5263269 -0.259912E-07  0.694E-04    1.31      34.0  T
  11    -28.5263269 -0.337299E-08  0.289E-04    1.30      81.6  T
     SCC iter.                  ...        0 min,  1.288 sec
     gradient                   ...        0 min,  0.189 sec
 * total energy  :   -28.2324825 Eh     change       -0.2077560E-01 Eh
   gradient norm :     0.1554177 Eh/α   predicted    -0.2143791E-01 (   3.19%)
   displ. norm   :     0.5872189 α      lambda       -0.4758519E-01
   maximum displ.:     0.2773571 α      in ANC's #1, #10, #33, ...

........................................................................
.............................. CYCLE    5 ..............................
........................................................................

 iter      E             dE          RMSdq      gap      omega  full diag
   1    -28.5194652 -0.285195E+02  0.123E+00    1.04       0.0  T
   2    -28.5041095  0.153558E-01  0.151E+00    1.20       1.0  T
   3    -28.5332956 -0.291861E-01  0.383E-01    1.04       1.0  T
   4    -28.5332186  0.769982E-04  0.311E-01    1.11       1.0  T
   5    -28.5344692 -0.125060E-02  0.107E-01    1.08       1.0  T
   6    -28.5345314 -0.621958E-04  0.411E-02    1.08       1.0  T
   7    -28.5345398 -0.844358E-05  0.161E-02    1.08       1.5  T
   8    -28.5345427 -0.286169E-05  0.566E-03    1.07       4.2  T
   9    -28.5345428 -0.102309E-06  0.334E-03    1.07       7.1  T
  10    -28.5345428 -0.486489E-07  0.147E-03    1.08      16.0  T
  11    -28.5345428 -0.118360E-07  0.336E-04    1.08      70.2  T
  12    -28.5345428 -0.931202E-10  0.136E-04    1.08     173.1  T
     SCC iter.                  ...        0 min,  3.134 sec
     gradient                   ...        0 min,  0.170 sec
 * total energy  :   -28.2479569 Eh     change       -0.1547442E-01 Eh
   gradient norm :     0.2156179 Eh/α   predicted    -0.3199690E-01 ( 106.77%)
   displ. norm   :     0.2716182 α      lambda       -0.1842488E-01
   maximum displ.:     0.2302323 α      in ANC's #1, #10, #41, ...

........................................................................
.............................. CYCLE    6 ..............................
........................................................................

 iter      E             dE          RMSdq      gap      omega  full diag
   1    -28.5535651 -0.285536E+02  0.556E-01    1.16       0.0  T
   2    -28.5517348  0.183032E-02  0.533E-01    1.08       1.0  T
   3    -28.5553602 -0.362540E-02  0.192E-01    1.15       1.0  T
   4    -28.5556344 -0.274230E-03  0.969E-02    1.12       1.0  T
   5    -28.5557745 -0.140087E-03  0.317E-02    1.13       1.0  T
   6    -28.5557775 -0.298172E-05  0.155E-02    1.13       1.5  T
   7    -28.5557799 -0.240677E-05  0.518E-03    1.13       4.5  T
   8    -28.5557800 -0.841457E-07  0.205E-03    1.13      11.5  T
   9    -28.5557800 -0.153421E-07  0.923E-04    1.13      25.5  T
  10    -28.5557800 -0.371648E-08  0.335E-04    1.13      70.3  T
     SCC iter.                  ...        0 min,  1.180 sec
     gradient                   ...        0 min,  0.206 sec
 * total energy  :   -28.2613798 Eh     change       -0.1342297E-01 Eh
   gradient norm :     0.0975595 Eh/α   predicted    -0.9892109E-02 ( -26.30%)
   displ. norm   :     0.2896431 α      lambda       -0.1118771E-01
   maximum displ.:     0.1696199 α      in ANC's #1, #10, #15, ...

........................................................................
.............................. CYCLE    7 ..............................
........................................................................

 iter      E             dE          RMSdq      gap      omega  full diag
   1    -28.5766976 -0.285767E+02  0.327E-01    1.09       0.0  T
   2    -28.5768239 -0.126293E-03  0.206E-01    1.09       1.0  T
   3    -28.5768954 -0.714775E-04  0.145E-01    1.10       1.0  T
   4    -28.5768997 -0.431882E-05  0.820E-02    1.08       1.0  T
   5    -28.5770243 -0.124539E-03  0.265E-02    1.09       1.0  T
   6    -28.5770301 -0.580284E-05  0.115E-02    1.09       2.0  T
   7    -28.5770314 -0.131513E-05  0.524E-03    1.09       4.5  T
   8    -28.5770316 -0.192679E-06  0.210E-03    1.09      11.2  T
   9    -28.5770316 -0.102139E-07  0.742E-04    1.09      31.8  T
  10    -28.5770316 -0.229065E-08  0.291E-04    1.09      81.0  T
     SCC iter.                  ...        0 min,  2.042 sec
     gradient                   ...        0 min,  0.174 sec
 * total energy  :   -28.2684602 Eh     change       -0.7080324E-02 Eh
   gradient norm :     0.0480058 Eh/α   predicted    -0.6063134E-02 ( -14.37%)
   displ. norm   :     0.1918415 α      lambda       -0.3824330E-02
   maximum displ.:     0.1061636 α      in ANC's #10, #9, #15, ...

........................................................................
.............................. CYCLE    8 ..............................
........................................................................

 iter      E             dE          RMSdq      gap      omega  full diag
   1    -28.5867600 -0.285868E+02  0.194E-01    1.01       0.0  T
   2    -28.5864833  0.276637E-03  0.211E-01    1.05       1.0  T
   3    -28.5869721 -0.488720E-03  0.824E-02    1.02       1.0  T
   4    -28.5869832 -0.111223E-04  0.274E-02    1.03       1.0  T
   5    -28.5869904 -0.724381E-05  0.848E-03    1.02       2.8  T
   6    -28.5869904  0.480744E-07  0.413E-03    1.03       5.7  T
   7    -28.5869906 -0.172248E-06  0.158E-03    1.02      14.9  T
   8    -28.5869906 -0.106885E-08  0.787E-04    1.02      29.9  T
   9    -28.5869906 -0.696527E-08  0.220E-04    1.02     107.1  T
     SCC iter.                  ...        0 min,  1.167 sec
     gradient                   ...        0 min,  0.199 sec
 * total energy  :   -28.2712850 Eh     change       -0.2824867E-02 Eh
   gradient norm :     0.0477623 Eh/α   predicted    -0.1982544E-02 ( -29.82%)
   displ. norm   :     0.2268486 α      lambda       -0.3096032E-02
   maximum displ.:     0.1214672 α      in ANC's #10, #9, #15, ...

........................................................................
.............................. CYCLE    9 ..............................
........................................................................

 iter      E             dE          RMSdq      gap      omega  full diag
   1    -28.5903587 -0.285904E+02  0.213E-01    0.92       0.0  T
   2    -28.5898884  0.470369E-03  0.256E-01    0.95       1.0  T
   3    -28.5906997 -0.811344E-03  0.863E-02    0.93       1.0  T
   4    -28.5906943  0.540838E-05  0.330E-02    0.94       1.0  T
   5    -28.5907077 -0.134536E-04  0.104E-02    0.93       2.3  T
   6    -28.5907080 -0.291268E-06  0.475E-03    0.93       5.0  T
   7    -28.5907081 -0.109027E-06  0.250E-03    0.93       9.4  T
   8    -28.5907082 -0.506395E-07  0.957E-04    0.93      24.6  T
   9    -28.5907082 -0.629265E-08  0.317E-04    0.93      74.3  T
     SCC iter.                  ...        0 min,  1.236 sec
     gradient                   ...        0 min,  0.139 sec
 * total energy  :   -28.2733328 Eh     change       -0.2047740E-02 Eh
   gradient norm :     0.0285309 Eh/α   predicted    -0.1627682E-02 ( -20.51%)
   displ. norm   :     0.1425352 α      lambda       -0.1258235E-02
   maximum displ.:     0.0575688 α      in ANC's #10, #1, #9, ...

........................................................................
.............................. CYCLE   10 ..............................
........................................................................

 iter      E             dE          RMSdq      gap      omega  full diag
   1    -28.5900299 -0.285900E+02  0.109E-01    0.87       0.0  T
   2    -28.5899733  0.565786E-04  0.104E-01    0.88       1.0  T
   3    -28.5900653 -0.919698E-04  0.517E-02    0.87       1.0  T
   4    -28.5900786 -0.133098E-04  0.168E-02    0.88       1.4  T
   5    -28.5900815 -0.289430E-05  0.779E-03    0.88       3.0  T
   6    -28.5900821 -0.609557E-06  0.308E-03    0.88       7.7  T
   7    -28.5900821 -0.282646E-07  0.118E-03    0.88      20.0  T
   8    -28.5900821 -0.249449E-08  0.613E-04    0.88      38.5  T
   9    -28.5900821 -0.296215E-08  0.148E-04    0.88     159.8  T
     SCC iter.                  ...        0 min,  0.905 sec
     gradient                   ...        0 min,  0.205 sec
 * total energy  :   -28.2742674 Eh     change       -0.9346714E-03 Eh
   gradient norm :     0.0176736 Eh/α   predicted    -0.6418989E-03 ( -31.32%)
   displ. norm   :     0.1675732 α      lambda       -0.1254421E-02
   maximum displ.:     0.0817439 α      in ANC's #1, #5, #9, ...

........................................................................
.............................. CYCLE   11 ..............................
........................................................................

 iter      E             dE          RMSdq      gap      omega  full diag
   1    -28.5879812 -0.285880E+02  0.123E-01    0.82       0.0  T
   2    -28.5879924 -0.112101E-04  0.766E-02    0.82       1.0  T
   3    -28.5879723  0.201023E-04  0.506E-02    0.82       1.0  T
   4    -28.5879958 -0.234540E-04  0.332E-02    0.83       1.0  T
   5    -28.5880118 -0.160227E-04  0.115E-02    0.82       2.0  T
   6    -28.5880129 -0.113774E-05  0.368E-03    0.82       6.4  T
   7    -28.5880129 -0.192020E-07  0.209E-03    0.82      11.3  T
   8    -28.5880130 -0.254124E-07  0.721E-04    0.82      32.7  T
   9    -28.5880130 -0.261536E-08  0.178E-04    0.82     132.2  T
     SCC iter.                  ...        0 min,  0.937 sec
     gradient                   ...        0 min,  0.135 sec
 * total energy  :   -28.2751605 Eh     change       -0.8930670E-03 Eh
   gradient norm :     0.0172734 Eh/α   predicted    -0.6448236E-03 ( -27.80%)
   displ. norm   :     0.1610004 α      lambda       -0.9164492E-03
   maximum displ.:     0.0825519 α      in ANC's #5, #1, #9, ...

........................................................................
.............................. CYCLE   12 ..............................
........................................................................

 iter      E             dE          RMSdq      gap      omega  full diag
   1    -28.5862079 -0.285862E+02  0.108E-01    0.79       0.0  T
   2    -28.5862232 -0.153010E-04  0.660E-02    0.79       1.0  T
   3    -28.5862301 -0.693892E-05  0.431E-02    0.79       1.0  T
   4    -28.5862313 -0.111508E-05  0.234E-02    0.79       1.0  T
   5    -28.5862379 -0.660659E-05  0.821E-03    0.79       2.9  T
   6    -28.5862387 -0.862082E-06  0.404E-03    0.79       5.8  T
   7    -28.5862389 -0.166299E-06  0.183E-03    0.79      12.9  T
   8    -28.5862389 -0.168997E-07  0.605E-04    0.79      39.0  T
   9    -28.5862389 -0.176222E-08  0.126E-04    0.79     186.8  T
     SCC iter.                  ...        0 min,  0.935 sec
     gradient                   ...        0 min,  0.223 sec
 * total energy  :   -28.2758474 Eh     change       -0.6869330E-03 Eh
   gradient norm :     0.0185865 Eh/α   predicted    -0.4700999E-03 ( -31.57%)
   displ. norm   :     0.2120372 α      lambda       -0.1046517E-02
   maximum displ.:     0.1178436 α      in ANC's #5, #1, #9, ...

........................................................................
.............................. CYCLE   13 ..............................
........................................................................

 iter      E             dE          RMSdq      gap      omega  full diag
   1    -28.5848684 -0.285849E+02  0.117E-01    0.75       0.0  T
   2    -28.5848879 -0.195275E-04  0.725E-02    0.76       1.0  T
   3    -28.5848924 -0.447142E-05  0.431E-02    0.75       1.0  T
   4    -28.5848876  0.476137E-05  0.340E-02    0.76       1.0  T
   5    -28.5849071 -0.195177E-04  0.777E-03    0.76       3.0  T
   6    -28.5849073 -0.181716E-06  0.416E-03    0.76       5.7  T
   7    -28.5849075 -0.181786E-06  0.192E-03    0.76      12.3  T
   8    -28.5849075 -0.160902E-07  0.698E-04    0.76      33.8  T
   9    -28.5849075 -0.123161E-08  0.150E-04    0.76     156.7  T
     SCC iter.                  ...        0 min,  1.047 sec
     gradient                   ...        0 min,  0.198 sec
 * total energy  :   -28.2766562 Eh     change       -0.8087944E-03 Eh
   gradient norm :     0.0200539 Eh/α   predicted    -0.5467861E-03 ( -32.39%)
   displ. norm   :     0.3057487 α      lambda       -0.1433859E-02
   maximum displ.:     0.1775940 α      in ANC's #5, #1, #9, ...

........................................................................
.............................. CYCLE   14 ..............................
........................................................................

 iter      E             dE          RMSdq      gap      omega  full diag
   1    -28.5839119 -0.285839E+02  0.161E-01    0.71       0.0  T
   2    -28.5838569  0.549899E-04  0.123E-01    0.72       1.0  T
   3    -28.5838780 -0.210443E-04  0.996E-02    0.71       1.0  T
   4    -28.5839885 -0.110565E-03  0.394E-02    0.72       1.0  T
   5    -28.5839998 -0.112551E-04  0.907E-03    0.72       2.6  T
   6    -28.5839995  0.342779E-06  0.599E-03    0.72       3.9  T
   7    -28.5840000 -0.583410E-06  0.226E-03    0.72      10.4  T
   8    -28.5840001 -0.232185E-07  0.947E-04    0.72      24.9  T
   9    -28.5840001 -0.122794E-08  0.227E-04    0.72     103.7  T
     SCC iter.                  ...        0 min,  1.117 sec
     gradient                   ...        0 min,  0.203 sec
 * total energy  :   -28.2777655 Eh     change       -0.1109306E-02 Eh
   gradient norm :     0.0237077 Eh/α   predicted    -0.7839500E-03 ( -29.33%)
   displ. norm   :     0.3634016 α      lambda       -0.1743092E-02
   maximum displ.:     0.2173278 α      in ANC's #5, #9, #1, ...

........................................................................
.............................. CYCLE   15 ..............................
........................................................................

 iter      E             dE          RMSdq      gap      omega  full diag
   1    -28.5839180 -0.285839E+02  0.220E-01    0.67       0.0  T
   2    -28.5835507  0.367296E-03  0.213E-01    0.69       1.0  T
   3    -28.5840225 -0.471811E-03  0.117E-01    0.68       1.0  T
   4    -28.5841255 -0.102930E-03  0.323E-02    0.68       1.0  T
   5    -28.5841317 -0.618221E-05  0.118E-02    0.68       2.0  T
   6    -28.5841318 -0.119169E-06  0.579E-03    0.68       4.1  T
   7    -28.5841322 -0.431708E-06  0.316E-03    0.68       7.5  T
   8    -28.5841323 -0.892262E-07  0.129E-03    0.68      18.2  T
   9    -28.5841323 -0.183921E-08  0.338E-04    0.68      69.7  T
  10    -28.5841323 -0.282959E-09  0.208E-04    0.68     113.4  T
     SCC iter.                  ...        0 min,  1.307 sec
     gradient                   ...        0 min,  0.170 sec
 * total energy  :   -28.2790912 Eh     change       -0.1325609E-02 Eh
   gradient norm :     0.0270169 Eh/α   predicted    -0.9866466E-03 ( -25.57%)
   displ. norm   :     0.3407312 α      lambda       -0.1771739E-02
   maximum displ.:     0.2056032 α      in ANC's #5, #9, #2, ...

........................................................................
.............................. CYCLE   16 ..............................
........................................................................

 iter      E             dE          RMSdq      gap      omega  full diag
   1    -28.5862310 -0.285862E+02  0.241E-01    0.65       0.0  T
   2    -28.5856454  0.585576E-03  0.258E-01    0.65       1.0  T
   3    -28.5864365 -0.791022E-03  0.114E-01    0.64       1.0  T
   4    -28.5865205 -0.840310E-04  0.300E-02    0.65       1.0  T
   5    -28.5865286 -0.807074E-05  0.123E-02    0.65       1.9  T
   6    -28.5865298 -0.122214E-05  0.633E-03    0.65       3.7  T
   7    -28.5865302 -0.429066E-06  0.280E-03    0.65       8.4  T
   8    -28.5865303 -0.667663E-07  0.143E-03    0.65      16.5  T
   9    -28.5865303 -0.779744E-08  0.350E-04    0.65      67.3  T
  10    -28.5865303 -0.397932E-09  0.197E-04    0.65     119.4  T
     SCC iter.                  ...        0 min,  1.753 sec
     gradient                   ...        0 min,  0.151 sec
 * total energy  :   -28.2804090 Eh     change       -0.1317880E-02 Eh
   gradient norm :     0.0244041 Eh/α   predicted    -0.9887149E-03 ( -24.98%)
   displ. norm   :     0.2891768 α      lambda       -0.1481169E-02
   maximum displ.:     0.1744172 α      in ANC's #5, #2, #9, ...

........................................................................
.............................. CYCLE   17 ..............................
........................................................................

 iter      E             dE          RMSdq      gap      omega  full diag
   1    -28.5903079 -0.285903E+02  0.216E-01    0.62       0.0  T
   2    -28.5898105  0.497407E-03  0.244E-01    0.62       1.0  T
   3    -28.5905143 -0.703754E-03  0.950E-02    0.61       1.0  T
   4    -28.5905558 -0.415885E-04  0.396E-02    0.62       1.0  T
   5    -28.5905765 -0.206326E-04  0.125E-02    0.62       1.9  T
   6    -28.5905777 -0.119769E-05  0.624E-03    0.62       3.8  T
   7    -28.5905780 -0.336438E-06  0.279E-03    0.62       8.4  T
   8    -28.5905781 -0.771498E-07  0.127E-03    0.62      18.6  T
   9    -28.5905781 -0.441267E-08  0.428E-04    0.62      55.1  T
  10    -28.5905781 -0.844398E-09  0.205E-04    0.62     114.7  T
     SCC iter.                  ...        0 min,  1.413 sec
     gradient                   ...        0 min,  0.205 sec
 * total energy  :   -28.2814800 Eh     change       -0.1070981E-02 Eh
   gradient norm :     0.0174749 Eh/α   predicted    -0.8025188E-03 ( -25.07%)
   displ. norm   :     0.2945489 α      lambda       -0.1057956E-02
   maximum displ.:     0.1757382 α      in ANC's #5, #2, #1, ...

........................................................................
.............................. CYCLE   18 ..............................
........................................................................

 iter      E             dE          RMSdq      gap      omega  full diag
   1    -28.5920808 -0.285921E+02  0.193E-01    0.58       0.0  T
   2    -28.5915490  0.531817E-03  0.241E-01    0.58       1.0  T
   3    -28.5922909 -0.741921E-03  0.798E-02    0.58       1.0  T
   4    -28.5923121 -0.211806E-04  0.328E-02    0.58       1.0  T
   5    -28.5923276 -0.155682E-04  0.105E-02    0.58       2.2  T
   6    -28.5923282 -0.583996E-06  0.558E-03    0.58       4.2  T
   7    -28.5923286 -0.345392E-06  0.274E-03    0.58       8.6  T
   8    -28.5923286 -0.493437E-07  0.134E-03    0.58      17.6  T
   9    -28.5923286 -0.721474E-08  0.360E-04    0.58      65.5  T
  10    -28.5923286 -0.489390E-09  0.207E-04    0.58     113.8  T
     SCC iter.                  ...        0 min,  2.466 sec
     gradient                   ...        0 min,  0.228 sec
 * total energy  :   -28.2822663 Eh     change       -0.7863199E-03 Eh
   gradient norm :     0.0184693 Eh/α   predicted    -0.5748747E-03 ( -26.89%)
   displ. norm   :     0.2743609 α      lambda       -0.1112621E-02
   maximum displ.:     0.1645859 α      in ANC's #5, #2, #11, ...

........................................................................
.............................. CYCLE   19 ..............................
........................................................................

 iter      E             dE          RMSdq      gap      omega  full diag
   1    -28.5951511 -0.285952E+02  0.165E-01    0.55       0.0  T
   2    -28.5949620  0.189027E-03  0.179E-01    0.55       1.0  T
   3    -28.5952608 -0.298707E-03  0.764E-02    0.55       1.0  T
   4    -28.5952641 -0.336155E-05  0.495E-02    0.55       1.0  T
   5    -28.5952997 -0.355699E-04  0.109E-02    0.55       2.2  T
   6    -28.5953004 -0.756427E-06  0.664E-03    0.55       3.5  T
   7    -28.5953010 -0.595414E-06  0.163E-03    0.55      14.5  T
   8    -28.5953010 -0.102896E-07  0.861E-04    0.55      27.4  T
   9    -28.5953010 -0.960988E-09  0.441E-04    0.55      53.4  T
     SCC iter.                  ...        0 min,  1.429 sec
     gradient                   ...        0 min,  0.202 sec
 * total energy  :   -28.2829608 Eh     change       -0.6944484E-03 Eh
   gradient norm :     0.0199349 Eh/α   predicted    -0.5981835E-03 ( -13.86%)
   displ. norm   :     0.4234316 α      lambda       -0.1300035E-02
   maximum displ.:     0.2338637 α      in ANC's #5, #1, #2, ...

........................................................................
.............................. CYCLE   20 ..............................
........................................................................

 iter      E             dE          RMSdq      gap      omega  full diag
   1    -28.5918333 -0.285918E+02  0.240E-01    0.51       0.0  T
   2    -28.5907116  0.112176E-02  0.323E-01    0.50       1.0  T
   3    -28.5921712 -0.145970E-02  0.105E-01    0.51       1.0  T
   4    -28.5922369 -0.656940E-04  0.227E-02    0.51       1.0  T
   5    -28.5922409 -0.395450E-05  0.976E-03    0.50       2.4  T
   6    -28.5922411 -0.237219E-06  0.601E-03    0.50       3.9  T
   7    -28.5922412 -0.280640E-07  0.346E-03    0.50       6.8  T
   8    -28.5922413 -0.134055E-06  0.179E-03    0.50      13.1  T
   9    -28.5922413 -0.275473E-07  0.301E-04    0.50      78.3  T
  10    -28.5922413  0.385679E-09  0.229E-04    0.50     102.8  T
     SCC iter.                  ...        0 min,  1.820 sec
     gradient                   ...        0 min,  0.180 sec
 * total energy  :   -28.2835773 Eh     change       -0.6164927E-03 Eh
   gradient norm :     0.0393733 Eh/α   predicted    -0.7665670E-03 (  24.34%)
   displ. norm   :     0.0966287 α      lambda       -0.9643929E-03
   maximum displ.:     0.0445390 α      in ANC's #11, #2, #5, ...
 * RMSD in coord.:     0.8522681 α      energy gain  -0.1109935E+01 Eh

generating ANC from exact Hessian ...
Using Lindh-Hessian (1995)
 Shifting diagonal of input Hessian by    7.6070540392821993E-003
 Lowest  eigenvalues of input Hessian
    0.000000    0.000000    0.000000    0.000000    0.000000    0.000000
    0.010000    0.011135    0.013085    0.016248    0.017470    0.020220
    0.022420    0.030435    0.035464    0.040226    0.047047    0.057636
 Highest eigenvalues
    1.838343    1.973572    2.025655    2.050787    2.507666    3.794905


........................................................................
.............................. CYCLE   21 ..............................
........................................................................

 iter      E             dE          RMSdq      gap      omega  full diag
   1    -28.5945704 -0.285946E+02  0.993E-02    0.50       0.0  T
   2    -28.5944346  0.135751E-03  0.117E-01    0.50       1.0  T
   3    -28.5946061 -0.171482E-03  0.487E-02    0.50       1.0  T
   4    -28.5946208 -0.146719E-04  0.115E-02    0.50       2.1  T
   5    -28.5946221 -0.136836E-05  0.572E-03    0.50       4.1  T
   6    -28.5946224 -0.305537E-06  0.233E-03    0.50      10.1  T
   7    -28.5946225 -0.717371E-07  0.809E-04    0.50      29.1  T
   8    -28.5946225 -0.841266E-08  0.234E-04    0.50     100.5  T
     SCC iter.                  ...        0 min,  0.931 sec
     gradient                   ...        0 min,  0.199 sec
 * total energy  :   -28.2843194 Eh     change       -0.7421036E-03 Eh
   gradient norm :     0.0241596 Eh/α   predicted     0.0000000E+00 (-100.00%)
   displ. norm   :     0.4355337 α      lambda       -0.3574893E-02
   maximum displ.:     0.4045719 α      in ANC's #1, #8, #6, ...

........................................................................
.............................. CYCLE   22 ..............................
........................................................................

 iter      E             dE          RMSdq      gap      omega  full diag
   1    -28.5973569 -0.285974E+02  0.240E-01    0.54       0.0  T
   2    -28.5969732  0.383623E-03  0.231E-01    0.52       1.0  T
   3    -28.5974305 -0.457268E-03  0.131E-01    0.54       1.0  T
   4    -28.5975119 -0.814086E-04  0.569E-02    0.53       1.0  T
   5    -28.5975689 -0.569845E-04  0.126E-02    0.53       1.9  T
   6    -28.5975706 -0.172726E-05  0.536E-03    0.53       4.4  T
   7    -28.5975707 -0.122135E-06  0.277E-03    0.53       8.5  T
   8    -28.5975708 -0.217494E-07  0.117E-03    0.53      20.2  T
   9    -28.5975708 -0.300298E-08  0.438E-04    0.53      53.8  T
  10    -28.5975708 -0.171690E-08  0.156E-04    0.53     151.3  T
     SCC iter.                  ...        0 min,  4.223 sec
     gradient                   ...        0 min,  0.219 sec
 * total energy  :   -28.2871258 Eh     change       -0.2806434E-02 Eh
   gradient norm :     0.0122995 Eh/α   predicted    -0.2126508E-02 ( -24.23%)
   displ. norm   :     0.4493550 α      lambda       -0.2411696E-02
   maximum displ.:     0.4226954 α      in ANC's #1, #11, #6, ...

........................................................................
.............................. CYCLE   23 ..............................
........................................................................

 iter      E             dE          RMSdq      gap      omega  full diag
   1    -28.5976816 -0.285977E+02  0.273E-01    0.58       0.0  T
   2    -28.5969103  0.771311E-03  0.307E-01    0.55       1.0  T
   3    -28.5980472 -0.113691E-02  0.109E-01    0.57       1.0  T
   4    -28.5980868 -0.395879E-04  0.643E-02    0.57       1.0  T
   5    -28.5981519 -0.650881E-04  0.166E-02    0.56       1.4  T
   6    -28.5981542 -0.228177E-05  0.742E-03    0.56       3.2  T
   7    -28.5981545 -0.274341E-06  0.321E-03    0.56       7.3  T
   8    -28.5981545 -0.274007E-07  0.139E-03    0.56      17.0  T
   9    -28.5981545 -0.180825E-08  0.589E-04    0.56      40.0  T
  10    -28.5981545 -0.332438E-08  0.232E-04    0.56     101.7  T
     SCC iter.                  ...        0 min,  0.845 sec
     gradient                   ...        0 min,  0.004 sec
 * total energy  :   -28.2891918 Eh     change       -0.2065971E-02 Eh
   gradient norm :     0.0108390 Eh/α   predicted    -0.1449329E-02 ( -29.85%)
   displ. norm   :     0.4549779 α      lambda       -0.1954037E-02
   maximum displ.:     0.4232237 α      in ANC's #1, #11, #6, ...

........................................................................
.............................. CYCLE   24 ..............................
........................................................................

 iter      E             dE          RMSdq      gap      omega  full diag
   1    -28.5978455 -0.285978E+02  0.299E-01    0.63       0.0  T
   2    -28.5970842  0.761284E-03  0.323E-01    0.57       1.0  T
   3    -28.5983653 -0.128103E-02  0.108E-01    0.61       1.0  T
   4    -28.5984166 -0.513493E-04  0.672E-02    0.60       1.0  T
   5    -28.5984820 -0.654272E-04  0.183E-02    0.60       1.3  T
   6    -28.5984849 -0.286348E-05  0.838E-03    0.60       2.8  T
   7    -28.5984852 -0.291268E-06  0.371E-03    0.60       6.4  T
   8    -28.5984852 -0.420480E-07  0.140E-03    0.60      16.8  T
   9    -28.5984852 -0.213424E-08  0.590E-04    0.60      39.9  T
  10    -28.5984852 -0.333609E-08  0.258E-04    0.60      91.5  T
     SCC iter.                  ...        0 min,  0.877 sec
     gradient                   ...        0 min,  0.101 sec
 * total energy  :   -28.2908868 Eh     change       -0.1695053E-02 Eh
   gradient norm :     0.0139179 Eh/α   predicted    -0.1179260E-02 ( -30.43%)
   displ. norm   :     0.4773767 α      lambda       -0.1762848E-02
   maximum displ.:     0.4446212 α      in ANC's #1, #3, #11, ...

........................................................................
.............................. CYCLE   25 ..............................
........................................................................

 iter      E             dE          RMSdq      gap      omega  full diag
   1    -28.5990102 -0.285990E+02  0.290E-01    0.67       0.0  T
   2    -28.5985765  0.433669E-03  0.274E-01    0.61       1.0  T
   3    -28.5994386 -0.862053E-03  0.108E-01    0.64       1.0  T
   4    -28.5994957 -0.571254E-04  0.663E-02    0.64       1.0  T
   5    -28.5995586 -0.629130E-04  0.174E-02    0.64       1.4  T
   6    -28.5995609 -0.230555E-05  0.764E-03    0.64       3.1  T
   7    -28.5995612 -0.241553E-06  0.338E-03    0.64       7.0  T
   8    -28.5995612 -0.197842E-07  0.139E-03    0.64      16.9  T
   9    -28.5995612 -0.251645E-08  0.496E-04    0.64      47.5  T
  10    -28.5995612 -0.230297E-08  0.248E-04    0.64      95.0  T
     SCC iter.                  ...        0 min,  1.029 sec
     gradient                   ...        0 min,  0.225 sec
 * total energy  :   -28.2923974 Eh     change       -0.1510601E-02 Eh
   gradient norm :     0.0151462 Eh/α   predicted    -0.1082241E-02 ( -28.36%)
   displ. norm   :     0.5633586 α      lambda       -0.1800570E-02
   maximum displ.:     0.5225263 α      in ANC's #1, #3, #12, ...

........................................................................
.............................. CYCLE   26 ..............................
........................................................................

 iter      E             dE          RMSdq      gap      omega  full diag
   1    -28.6004397 -0.286004E+02  0.278E-01    0.71       0.0  T
   2    -28.6003605  0.792078E-04  0.193E-01    0.65       1.0  T
   3    -28.6005859 -0.225486E-03  0.124E-01    0.69       1.0  T
   4    -28.6006932 -0.107251E-03  0.603E-02    0.68       1.0  T
   5    -28.6007432 -0.499798E-04  0.186E-02    0.68       1.3  T
   6    -28.6007466 -0.345506E-05  0.636E-03    0.68       3.7  T
   7    -28.6007467 -0.647381E-07  0.327E-03    0.68       7.2  T
   8    -28.6007467 -0.266382E-07  0.145E-03    0.68      16.2  T
   9    -28.6007467 -0.356123E-08  0.339E-04    0.68      69.5  T
  10    -28.6007467 -0.605507E-09  0.147E-04    0.68     160.6  T
     SCC iter.                  ...        0 min,  1.828 sec
     gradient                   ...        0 min,  0.002 sec
 * total energy  :   -28.2938850 Eh     change       -0.1487531E-02 Eh
   gradient norm :     0.0145833 Eh/α   predicted    -0.1186028E-02 ( -20.27%)
   displ. norm   :     0.6189959 α      lambda       -0.1656513E-02
   maximum displ.:     0.5582499 α      in ANC's #1, #3, #5, ...

........................................................................
.............................. CYCLE   27 ..............................
........................................................................

 iter      E             dE          RMSdq      gap      omega  full diag
   1    -28.6012977 -0.286013E+02  0.277E-01    0.74       0.0  T
   2    -28.6013039 -0.623753E-05  0.173E-01    0.70       1.0  T
   3    -28.6013208 -0.168977E-04  0.129E-01    0.74       1.0  T
   4    -28.6015066 -0.185722E-03  0.475E-02    0.72       1.0  T
   5    -28.6015279 -0.212855E-04  0.180E-02    0.72       1.3  T
   6    -28.6015316 -0.374140E-05  0.588E-03    0.72       4.0  T
   7    -28.6015317 -0.840455E-07  0.286E-03    0.72       8.2  T
   8    -28.6015317 -0.232420E-07  0.141E-03    0.72      16.8  T
   9    -28.6015317 -0.348105E-08  0.446E-04    0.72      52.9  T
  10    -28.6015317 -0.347022E-09  0.202E-04    0.72     116.6  T
     SCC iter.                  ...        0 min,  1.123 sec
     gradient                   ...        0 min,  0.182 sec
 * total energy  :   -28.2951671 Eh     change       -0.1282166E-02 Eh
   gradient norm :     0.0143799 Eh/α   predicted    -0.1145621E-02 ( -10.65%)
   displ. norm   :     0.4938842 α      lambda       -0.1171323E-02
   maximum displ.:     0.4309594 α      in ANC's #1, #5, #3, ...

........................................................................
.............................. CYCLE   28 ..............................
........................................................................

 iter      E             dE          RMSdq      gap      omega  full diag
   1    -28.6042336 -0.286042E+02  0.229E-01    0.75       0.0  T
   2    -28.6043153 -0.816722E-04  0.119E-01    0.75       1.0  T
   3    -28.6042481  0.672328E-04  0.835E-02    0.76       1.0  T
   4    -28.6043306 -0.825259E-04  0.401E-02    0.75       1.0  T
   5    -28.6043483 -0.177061E-04  0.122E-02    0.75       1.9  T
   6    -28.6043494 -0.108906E-05  0.417E-03    0.75       5.6  T
   7    -28.6043494 -0.387254E-07  0.168E-03    0.75      14.1  T
   8    -28.6043494  0.982542E-09  0.819E-04    0.75      28.8  T
   9    -28.6043494 -0.437945E-08  0.339E-04    0.75      69.5  T
     SCC iter.                  ...        0 min,  2.956 sec
     gradient                   ...        0 min,  0.198 sec
 * total energy  :   -28.2959778 Eh     change       -0.8107040E-03 Eh
   gradient norm :     0.0138370 Eh/α   predicted    -0.7285091E-03 ( -10.14%)
   displ. norm   :     0.4259074 α      lambda       -0.7515909E-03
   maximum displ.:     0.3436397 α      in ANC's #1, #3, #5, ...

........................................................................
.............................. CYCLE   29 ..............................
........................................................................

 iter      E             dE          RMSdq      gap      omega  full diag
   1    -28.6041128 -0.286041E+02  0.178E-01    0.79       0.0  T
   2    -28.6041424 -0.296546E-04  0.118E-01    0.77       1.0  T
   3    -28.6041488 -0.642065E-05  0.770E-02    0.79       1.0  T
   4    -28.6042274 -0.785374E-04  0.272E-02    0.78       1.0  T
   5    -28.6042328 -0.546497E-05  0.708E-03    0.78       3.3  T
   6    -28.6042330 -0.210718E-06  0.279E-03    0.78       8.5  T
   7    -28.6042331 -0.524962E-07  0.921E-04    0.78      25.6  T
   8    -28.6042331 -0.698780E-09  0.558E-04    0.78      42.2  T
     SCC iter.                  ...        0 min,  2.856 sec
     gradient                   ...        0 min,  0.223 sec
 * total energy  :   -28.2962882 Eh     change       -0.3103735E-03 Eh
   gradient norm :     0.0180456 Eh/α   predicted    -0.4439779E-03 (  43.05%)
   displ. norm   :     0.0967166 α      lambda       -0.3792112E-03
   maximum displ.:     0.0628896 α      in ANC's #1, #12, #5, ...

........................................................................
.............................. CYCLE   30 ..............................
........................................................................

 iter      E             dE          RMSdq      gap      omega  full diag
   1    -28.6078721 -0.286079E+02  0.763E-02    0.78       0.0  T
   2    -28.6078832 -0.110458E-04  0.428E-02    0.79       1.0  T
   3    -28.6078846 -0.143151E-05  0.263E-02    0.78       1.0  T
   4    -28.6078874 -0.276664E-05  0.783E-03    0.78       3.0  T
   5    -28.6078877 -0.376276E-06  0.496E-03    0.78       4.7  T
   6    -28.6078880 -0.253241E-06  0.216E-03    0.78      10.9  T
   7    -28.6078880 -0.482509E-07  0.869E-04    0.78      27.1  T
   8    -28.6078880 -0.295119E-08  0.403E-04    0.78      58.5  T
     SCC iter.                  ...        0 min,  2.627 sec
     gradient                   ...        0 min,  0.202 sec
 * total energy  :   -28.2964659 Eh     change       -0.1776982E-03 Eh
   gradient norm :     0.0067519 Eh/α   predicted    -0.1913803E-03 (   7.70%)
   displ. norm   :     0.1229545 α      lambda       -0.1250039E-03
   maximum displ.:     0.0934395 α      in ANC's #1, #3, #12, ...

........................................................................
.............................. CYCLE   31 ..............................
........................................................................

 iter      E             dE          RMSdq      gap      omega  full diag
   1    -28.6055693 -0.286056E+02  0.674E-02    0.79       0.0  T
   2    -28.6055789 -0.961643E-05  0.436E-02    0.81       1.0  T
   3    -28.6055875 -0.857771E-05  0.254E-02    0.80       1.0  T
   4    -28.6055885 -0.102576E-05  0.138E-02    0.80       1.7  T
   5    -28.6055915 -0.303719E-05  0.364E-03    0.80       6.5  T
   6    -28.6055916 -0.875768E-07  0.162E-03    0.80      14.6  T
   7    -28.6055916 -0.114019E-07  0.649E-04    0.80      36.3  T
   8    -28.6055916 -0.193631E-08  0.306E-04    0.80      77.0  T
     SCC iter.                  ...        0 min,  4.883 sec
     gradient                   ...        0 min,  0.156 sec
 * total energy  :   -28.2965067 Eh     change       -0.4082444E-04 Eh
   gradient norm :     0.0099632 Eh/α   predicted    -0.6344858E-04 (  55.42%)
   displ. norm   :     0.0656179 α      lambda       -0.1149125E-03
   maximum displ.:     0.0417234 α      in ANC's #1, #3, #7, ...

........................................................................
.............................. CYCLE   32 ..............................
........................................................................

 iter      E             dE          RMSdq      gap      omega  full diag
   1    -28.6068980 -0.286069E+02  0.376E-02    0.78       0.0  T
   2    -28.6069001 -0.205681E-05  0.236E-02    0.78       1.0  T
   3    -28.6068991  0.971180E-06  0.123E-02    0.78       1.9  T
   4    -28.6069004 -0.127837E-05  0.658E-03    0.78       3.6  T
   5    -28.6069010 -0.679270E-06  0.204E-03    0.78      11.6  T
   6    -28.6069011 -0.356722E-07  0.635E-04    0.78      37.1  T
   7    -28.6069011 -0.310461E-08  0.267E-04    0.78      88.4  T
     SCC iter.                  ...        0 min,  0.952 sec
     gradient                   ...        0 min,  0.221 sec
 * total energy  :   -28.2965761 Eh     change       -0.6936871E-04 Eh
   gradient norm :     0.0070866 Eh/α   predicted    -0.5770414E-04 ( -16.82%)
   displ. norm   :     0.0734740 α      lambda       -0.1181994E-03
   maximum displ.:     0.0343666 α      in ANC's #7, #3, #2, ...

........................................................................
.............................. CYCLE   33 ..............................
........................................................................

 iter      E             dE          RMSdq      gap      omega  full diag
   1    -28.6067677 -0.286068E+02  0.484E-02    0.78       0.0  T
   2    -28.6067699 -0.215228E-05  0.476E-02    0.77       1.0  T
   3    -28.6067867 -0.167936E-04  0.213E-02    0.77       1.1  T
   4    -28.6067843  0.235481E-05  0.139E-02    0.77       1.7  T
   5    -28.6067872 -0.286702E-05  0.215E-03    0.77      11.0  T
   6    -28.6067872 -0.129796E-07  0.984E-04    0.77      24.0  T
   7    -28.6067872 -0.307362E-08  0.462E-04    0.77      51.0  T
     SCC iter.                  ...        0 min,  0.800 sec
     gradient                   ...        0 min,  0.152 sec
 * total energy  :   -28.2966328 Eh     change       -0.5670779E-04 Eh
   gradient norm :     0.0054608 Eh/α   predicted    -0.5941980E-04 (   4.78%)
   displ. norm   :     0.0844847 α      lambda       -0.5959420E-04
   maximum displ.:     0.0619964 α      in ANC's #3, #2, #7, ...

........................................................................
.............................. CYCLE   34 ..............................
........................................................................

 iter      E             dE          RMSdq      gap      omega  full diag
   1    -28.6067213 -0.286067E+02  0.390E-02    0.76       0.0  T
   2    -28.6067248 -0.343594E-05  0.209E-02    0.77       1.1  T
   3    -28.6067260 -0.127431E-05  0.140E-02    0.76       1.7  T
   4    -28.6067264 -0.327881E-06  0.571E-03    0.76       4.1  T
   5    -28.6067268 -0.474408E-06  0.165E-03    0.76      14.3  T
   6    -28.6067269 -0.325200E-07  0.932E-04    0.76      25.3  T
   7    -28.6067269 -0.565148E-08  0.265E-04    0.76      88.9  T
     SCC iter.                  ...        0 min,  3.832 sec
     gradient                   ...        0 min,  0.148 sec
 * total energy  :   -28.2966756 Eh     change       -0.4278291E-04 Eh
   gradient norm :     0.0046064 Eh/α   predicted    -0.3000870E-04 ( -29.86%)
   displ. norm   :     0.1142197 α      lambda       -0.6722427E-04
   maximum displ.:     0.0814092 α      in ANC's #3, #2, #7, ...

........................................................................
.............................. CYCLE   35 ..............................
........................................................................

 iter      E             dE          RMSdq      gap      omega  full diag
   1    -28.6065765 -0.286066E+02  0.505E-02    0.75       0.0  T
   2    -28.6065820 -0.554126E-05  0.285E-02    0.76       1.0  T
   3    -28.6065846 -0.258435E-05  0.188E-02    0.76       1.3  T
   4    -28.6065850 -0.383855E-06  0.889E-03    0.76       2.7  T
   5    -28.6065863 -0.131542E-05  0.239E-03    0.76       9.9  T
   6    -28.6065864 -0.626466E-07  0.110E-03    0.76      21.5  T
   7    -28.6065864 -0.521666E-08  0.361E-04    0.76      65.4  T
   8    -28.6065864 -0.286335E-09  0.213E-04    0.76     110.6  T
     SCC iter.                  ...        0 min,  5.378 sec
     gradient                   ...        0 min,  0.164 sec
 * total energy  :   -28.2967187 Eh     change       -0.4307924E-04 Eh
   gradient norm :     0.0038797 Eh/α   predicted    -0.3404914E-04 ( -20.96%)
   displ. norm   :     0.0919063 α      lambda       -0.4303899E-04
   maximum displ.:     0.0684885 α      in ANC's #3, #2, #4, ...

........................................................................
.............................. CYCLE   36 ..............................
........................................................................

 iter      E             dE          RMSdq      gap      omega  full diag
   1    -28.6059021 -0.286059E+02  0.267E-02    0.76       0.0  T
   2    -28.6059027 -0.648043E-06  0.151E-02    0.76       1.6  T
   3    -28.6059025  0.214858E-06  0.901E-03    0.76       2.6  T
   4    -28.6059030 -0.521250E-06  0.171E-03    0.76      13.8  T
   5    -28.6059030 -0.214640E-07  0.721E-04    0.76      32.7  T
   6    -28.6059030 -0.635119E-09  0.371E-04    0.76      63.5  T
     SCC iter.                  ...        0 min,  0.599 sec
     gradient                   ...        0 min,  0.002 sec
 * total energy  :   -28.2967487 Eh     change       -0.3000619E-04 Eh
   gradient norm :     0.0041666 Eh/α   predicted    -0.2170172E-04 ( -27.68%)
   displ. norm   :     0.1116639 α      lambda       -0.5780577E-04
   maximum displ.:     0.0747073 α      in ANC's #3, #4, #2, ...

........................................................................
.............................. CYCLE   37 ..............................
........................................................................

 iter      E             dE          RMSdq      gap      omega  full diag
   1    -28.6060248 -0.286060E+02  0.334E-02    0.75       0.0  T
   2    -28.6060253 -0.426947E-06  0.200E-02    0.76       1.2  T
   3    -28.6060235  0.176169E-05  0.145E-02    0.75       1.6  T
   4    -28.6060256 -0.213890E-05  0.373E-03    0.76       6.3  T
   5    -28.6060259 -0.227085E-06  0.128E-03    0.76      18.3  T
   6    -28.6060259 -0.191696E-07  0.489E-04    0.76      48.2  T
   7    -28.6060259 -0.152535E-08  0.215E-04    0.76     109.6  T
     SCC iter.                  ...        0 min,  1.030 sec
     gradient                   ...        0 min,  0.168 sec
 * total energy  :   -28.2967882 Eh     change       -0.3947341E-04 Eh
   gradient norm :     0.0044305 Eh/α   predicted    -0.2926416E-04 ( -25.86%)
   displ. norm   :     0.1354941 α      lambda       -0.5871573E-04
   maximum displ.:     0.1002602 α      in ANC's #3, #4, #1, ...

........................................................................
.............................. CYCLE   38 ..............................
........................................................................

 iter      E             dE          RMSdq      gap      omega  full diag
   1    -28.6051527 -0.286052E+02  0.343E-02    0.76       0.0  T
   2    -28.6051531 -0.363563E-06  0.208E-02    0.76       1.1  T
   3    -28.6051513  0.175422E-05  0.127E-02    0.76       1.9  T
   4    -28.6051532 -0.187390E-05  0.345E-03    0.76       6.8  T
   5    -28.6051534 -0.216301E-06  0.794E-04    0.76      29.7  T
   6    -28.6051534 -0.257313E-08  0.365E-04    0.76      64.6  T
     SCC iter.                  ...        0 min,  0.674 sec
     gradient                   ...        0 min,  0.157 sec
 * total energy  :   -28.2968281 Eh     change       -0.3996753E-04 Eh
   gradient norm :     0.0054213 Eh/α   predicted    -0.2989623E-04 ( -25.20%)
   displ. norm   :     0.1334525 α      lambda       -0.8097159E-04
   maximum displ.:     0.0803136 α      in ANC's #3, #4, #5, ...

........................................................................
.............................. CYCLE   39 ..............................
........................................................................

 iter      E             dE          RMSdq      gap      omega  full diag
   1    -28.6060436 -0.286060E+02  0.424E-02    0.77       0.0  T
   2    -28.6060459 -0.225365E-05  0.235E-02    0.76       1.0  T
   3    -28.6060436  0.226825E-05  0.153E-02    0.77       1.5  T
   4    -28.6060463 -0.267937E-05  0.666E-03    0.77       3.5  T
   5    -28.6060469 -0.622049E-06  0.184E-03    0.77      12.8  T
   6    -28.6060470 -0.320591E-07  0.615E-04    0.77      38.3  T
   7    -28.6060470 -0.722380E-09  0.213E-04    0.77     110.6  T
     SCC iter.                  ...        0 min,  1.280 sec
     gradient                   ...        0 min,  0.217 sec
 * total energy  :   -28.2968815 Eh     change       -0.5337471E-04 Eh
   gradient norm :     0.0060230 Eh/α   predicted    -0.4120639E-04 ( -22.80%)
   displ. norm   :     0.2249977 α      lambda       -0.7963773E-04
   maximum displ.:     0.1567232 α      in ANC's #3, #4, #1, ...

........................................................................
.............................. CYCLE   40 ..............................
........................................................................

 iter      E             dE          RMSdq      gap      omega  full diag
   1    -28.6049267 -0.286049E+02  0.597E-02    0.77       0.0  T
   2    -28.6049276 -0.922115E-06  0.352E-02    0.77       1.0  T
   3    -28.6049183  0.926587E-05  0.240E-02    0.77       1.0  T
   4    -28.6049287 -0.103189E-04  0.383E-03    0.77       6.1  T
   5    -28.6049288 -0.119127E-06  0.141E-03    0.77      16.7  T
   6    -28.6049288 -0.222189E-08  0.542E-04    0.77      43.5  T
   7    -28.6049288 -0.117967E-08  0.162E-04    0.77     145.8  T
     SCC iter.                  ...        0 min,  0.821 sec
     gradient                   ...        0 min,  0.163 sec
 * total energy  :   -28.2969161 Eh     change       -0.3456097E-04 Eh
   gradient norm :     0.0072563 Eh/α   predicted    -0.4183276E-04 (  21.04%)
   displ. norm   :     0.1072012 α      lambda       -0.1343349E-03
   maximum displ.:     0.0592342 α      in ANC's #1, #4, #5, ...

........................................................................
.............................. CYCLE   41 ..............................
........................................................................

 iter      E             dE          RMSdq      gap      omega  full diag
   1    -28.6074811 -0.286075E+02  0.510E-02    0.79       0.0  T
   2    -28.6074847 -0.364712E-05  0.287E-02    0.78       1.0  T
   3    -28.6074822  0.252873E-05  0.179E-02    0.79       1.3  T
   4    -28.6074858 -0.357844E-05  0.898E-03    0.79       2.6  T
   5    -28.6074869 -0.108334E-05  0.284E-03    0.78       8.3  T
   6    -28.6074869 -0.599173E-07  0.982E-04    0.78      24.0  T
   7    -28.6074869 -0.363206E-08  0.372E-04    0.78      63.4  T
     SCC iter.                  ...        0 min,  0.856 sec
     gradient                   ...        0 min,  0.132 sec
 * total energy  :   -28.2969789 Eh     change       -0.6289230E-04 Eh
   gradient norm :     0.0040074 Eh/α   predicted    -0.6793848E-04 (   8.02%)
   displ. norm   :     0.1266142 α      lambda       -0.5348081E-04
   maximum displ.:     0.0767900 α      in ANC's #3, #4, #1, ...

........................................................................
.............................. CYCLE   42 ..............................
........................................................................

 iter      E             dE          RMSdq      gap      omega  full diag
   1    -28.6069754 -0.286070E+02  0.413E-02    0.78       0.0  T
   2    -28.6069756 -0.273128E-06  0.284E-02    0.79       1.0  T
   3    -28.6069775 -0.188681E-05  0.187E-02    0.78       1.3  T
   4    -28.6069795 -0.199519E-05  0.698E-03    0.78       3.4  T
   5    -28.6069803 -0.805535E-06  0.150E-03    0.78      15.7  T
   6    -28.6069803 -0.668791E-08  0.784E-04    0.78      30.1  T
   7    -28.6069803 -0.511785E-08  0.243E-04    0.78      97.1  T
     SCC iter.                  ...        0 min,  0.792 sec
     gradient                   ...        0 min,  0.185 sec
 * total energy  :   -28.2970137 Eh     change       -0.3473784E-04 Eh
   gradient norm :     0.0034082 Eh/α   predicted    -0.2717007E-04 ( -21.79%)
   displ. norm   :     0.0988102 α      lambda       -0.3099616E-04
   maximum displ.:     0.0573272 α      in ANC's #3, #4, #5, ...
 * RMSD in coord.:     1.0293123 α      energy gain  -0.1343641E-01 Eh

generating ANC from exact Hessian ...
Using Lindh-Hessian (1995)
 Shifting diagonal of input Hessian by    7.3622881707143453E-003
 Lowest  eigenvalues of input Hessian
    0.000000    0.000000    0.000000    0.000000    0.000000    0.000000
    0.010000    0.012348    0.013071    0.016527    0.016727    0.019929
    0.022219    0.028433    0.033254    0.040350    0.045399    0.054860
 Highest eigenvalues
    1.876718    1.930409    2.008875    2.080937    2.407725    3.707229


........................................................................
.............................. CYCLE   43 ..............................
........................................................................

 iter      E             dE          RMSdq      gap      omega  full diag
   1    -28.6068422 -0.286068E+02  0.292E-02    0.78       0.0  T
   2    -28.6068427 -0.483926E-06  0.185E-02    0.78       1.3  T
   3    -28.6068425  0.147794E-06  0.133E-02    0.78       1.8  T
   4    -28.6068437 -0.114919E-05  0.459E-03    0.78       5.1  T
   5    -28.6068440 -0.381343E-06  0.957E-04    0.78      24.6  T
   6    -28.6068440 -0.618136E-08  0.490E-04    0.78      48.1  T
     SCC iter.                  ...        0 min,  0.909 sec
     gradient                   ...        0 min,  0.152 sec
 * total energy  :   -28.2970342 Eh     change       -0.2046815E-04 Eh
   gradient norm :     0.0031398 Eh/α   predicted     0.0000000E+00 (-100.00%)
   displ. norm   :     0.0131559 α      lambda       -0.1591381E-04
   maximum displ.:     0.0068359 α      in ANC's #2, #6, #1, ...

........................................................................
.............................. CYCLE   44 ..............................
........................................................................

 iter      E             dE          RMSdq      gap      omega  full diag
   1    -28.6073104 -0.286073E+02  0.107E-02    0.78       0.0  T
   2    -28.6073106 -0.146706E-06  0.613E-03    0.78       3.8  T
   3    -28.6073105  0.108093E-06  0.326E-03    0.78       7.2  T
   4    -28.6073105 -0.825577E-07  0.194E-03    0.78      12.2  T
   5    -28.6073106 -0.560792E-07  0.295E-04    0.78      79.8  T
   6    -28.6073106 -0.146692E-09  0.134E-04    0.78     176.1  T
     SCC iter.                  ...        0 min,  3.194 sec
     gradient                   ...        0 min,  0.080 sec
 * total energy  :   -28.2970442 Eh     change       -0.1004773E-04 Eh
   gradient norm :     0.0010549 Eh/α   predicted    -0.7958970E-05 ( -20.79%)
   displ. norm   :     0.0218224 α      lambda       -0.3809700E-05
   maximum displ.:     0.0113541 α      in ANC's #2, #1, #4, ...

........................................................................
.............................. CYCLE   45 ..............................
........................................................................

 iter      E             dE          RMSdq      gap      omega  full diag
   1    -28.6074947 -0.286075E+02  0.895E-03    0.78       0.0  T
   2    -28.6074947 -0.781378E-07  0.485E-03    0.79       4.9  T
   3    -28.6074947  0.373725E-07  0.284E-03    0.79       8.3  T
   4    -28.6074948 -0.478587E-07  0.954E-04    0.79      24.7  T
   5    -28.6074948 -0.879232E-08  0.502E-04    0.79      47.0  T
     SCC iter.                  ...        0 min,  0.980 sec
     gradient                   ...        0 min,  0.221 sec
 * total energy  :   -28.2970475 Eh     change       -0.3274152E-05 Eh
   gradient norm :     0.0007779 Eh/α   predicted    -0.1906901E-05 ( -41.76%)
   displ. norm   :     0.0306160 α      lambda       -0.3073254E-05
   maximum displ.:     0.0187699 α      in ANC's #2, #4, #1, ...

   *** GEOMETRY OPTIMIZATION CONVERGED AFTER 45 ITERATIONS ***

------------------------------------------------------------------------
 total energy gain   :        -1.1234056 Eh     -704.9476 kcal/mol
 total RMSD          :         1.5792634 a0        0.8357 Å
 total power (kW/mol):       -65.5444657 (step)  -33.5527 (real)
------------------------------------------------------------------------

 ANCopt (total)                0 d,  0 h,  1 min, 27.907 sec
 optimizer setup                ...        0 min,  0.000 sec (  0.000%)
 model hessian                  ...        0 min,  0.012 sec (  0.013%)
 ANC generation                 ...        0 min,  0.001 sec (  0.002%)
 coordinate transformation      ...        0 min,  0.001 sec (  0.001%)
 single point calculation       ...        1 min, 27.147 sec ( 99.136%)
 optimization log               ...        0 min,  0.005 sec (  0.005%)
 hessian update                 ...        0 min,  0.681 sec (  0.775%)
 rational function              ...        0 min,  0.023 sec (  0.026%)

================
 final structure:
================
18
 xtb: 6.7.1 (edcfbbe)
C           -2.52632794452500        0.70042847381865       -0.48716653326621
C           -1.33746903380884       -0.01405500423251        0.00705869131985
C           -0.77549275445905       -1.24338337822409       -0.35148456275048
C            0.58087508733905       -1.28924630303411       -0.17835633077487
N            1.16207201214682       -0.07714569629889       -0.02434189492027
C            2.56479991379920        0.20228991806568       -0.11147636349298
N            0.27488876233846        0.92140742147134        0.26082817363767
S           -0.74900594961427        0.44023608161208        2.05319792051977
O            0.19803531904343       -0.64517665060048        2.36050490441190
H           -2.59048408905930        1.68926916497285       -0.04149448427034
H           -3.41676288432624        0.14078118981804       -0.20165519041542
H           -2.51223597314447        0.79641059737857       -1.57465037090663
H           -1.35664891022966       -2.07102357985778       -0.71384843789471
H            1.21105711828762       -2.15168588718921       -0.29537956974881
H            3.08180641673497       -0.66075644872241       -0.52545206140387
H            2.73184035425858        1.06724106359802       -0.76171102909840
H            2.97894575790506        0.42517977440119        0.87621726389691
H            0.48010779731818        1.76922926302476       -0.29079012482464

 Bond Distances (Angstroems)
 ---------------------------
C1-C2=1.4725         C1-H10=1.0865        C1-H11=1.0898        C1-H12=1.0918        C2-C1=1.4725         C2-C3=1.3984         
C2-N7=1.8813         C2-S8=2.1770         C3-C2=1.3984         C3-C4=1.3681         C3-H13=1.0743        C4-C3=1.3681         
C4-N5=1.3530         C4-H14=1.0745        N5-C4=1.3530         N5-C6=1.4329         N5-N7=1.3658         C6-N5=1.4329         
C6-H15=1.0879        C6-H16=1.0949        C6-H17=1.0940        N7-C2=1.8813         N7-N5=1.3658         N7-S8=2.1195         
N7-H18=1.0321        S8-C2=2.1770         S8-N7=2.1195         S8-O9=1.4729         O9-S8=1.4729         H10-C1=1.0865        
H11-C1=1.0898        H12-C1=1.0918        H13-C3=1.0743        H14-C4=1.0745        H15-C6=1.0879        H16-C6=1.0949        
H17-C6=1.0940        H18-N7=1.0321        
 C  H  Rav=1.0867 sigma=0.0076  Rmin=1.0743  Rmax=1.0949     8
 C  C  Rav=1.4130 sigma=0.0438  Rmin=1.3681  Rmax=1.4725     3
 N  H  Rav=1.0321 sigma=0.0000  Rmin=1.0321  Rmax=1.0321     1
 N  C  Rav=1.5557 sigma=0.2325  Rmin=1.3530  Rmax=1.8813     3
 N  N  Rav=1.3658 sigma=0.0000  Rmin=1.3658  Rmax=1.3658     1
 S  C  Rav=2.1770 sigma=0.0000  Rmin=2.1770  Rmax=2.1770     1
 S  N  Rav=2.1195 sigma=0.0000  Rmin=2.1195  Rmax=2.1195     1
 S  O  Rav=1.4729 sigma=0.0000  Rmin=1.4729  Rmax=1.4729     1

 selected bond angles (degree)
 --------------------
H10-C1-C2=110.59               H11-C1-C2=108.82               H11-C1-H10=108.16              H12-C1-C2=111.50               
H12-C1-H10=109.23              H12-C1-H11=108.46              C3-C2-C1=131.68                N7-C2-C1=119.73                
N7-C2-C3= 97.31                S8-C2-C1=115.62                S8-C2-C3=108.41                S8-C2-N7= 62.47                
C4-C3-C2=113.29                H13-C3-C2=123.12               H13-C3-C4=123.59               N5-C4-C3=114.22                
H14-C4-C3=126.48               H14-C4-N5=118.65               C6-N5-C4=126.03                N7-N5-C4=113.56                
N7-N5-C6=120.40                H15-C6-N5=109.49               H16-C6-N5=109.85               H16-C6-H15=109.16              
H17-C6-N5=110.82               H17-C6-H15=108.98              H17-C6-H16=108.51              N5-N7-C2= 99.50                
S8-N7-C2= 65.62                S8-N7-N5=108.93                H18-N7-C2=120.45               H18-N7-N5=111.09               
H18-N7-S8=137.27               N7-S8-C2= 51.91                O9-S8-C2=102.48                O9-S8-N7= 91.90                

 selected dihedral angles (degree)
 ---------------------------------
C3-C2-C1-H10=186.18           C3-C2-C1-H11= 67.51           C3-C2-C1-H12=307.92           N7-C2-C1-H10=320.99           
N7-C2-C1-H11=202.32           N7-C2-C1-H12= 82.73           S8-C2-C1-H10= 32.55           S8-C2-C1-H11=273.88           
S8-C2-C1-H12=154.29           C4-C3-C2-C1=150.36            C4-C3-C2-N7=  8.75            C4-C3-C2-S8=305.40            
H13-C3-C2-C1=329.59           H13-C3-C2-N7=187.98           H13-C3-C2-S8=124.62           N5-C4-C3-C2=344.27            
N5-C4-C3-H13=165.05           H14-C4-C3-C2=173.70           H14-C4-C3-H13=354.47          C6-N5-C4-C3=194.21            
C6-N5-C4-H14=  5.58           N7-N5-C4-C3= 15.39            N7-N5-C4-H14=186.76           H15-C6-N5-C4= 11.83           
H15-C6-N5-N7=190.58           H16-C6-N5-C4=131.69           H16-C6-N5-N7=310.44           H17-C6-N5-C4=251.58           
H17-C6-N5-N7= 70.33           C2-N7-N5-C4=351.83            C2-N7-N5-C6=172.94            S8-N7-N5-C4= 59.18            
S8-N7-N5-C6=240.28            H18-N7-N5-C4=223.86           H18-N7-N5-C6= 44.97           N7-S8-C2-C1=248.26            
N7-S8-C2-C3= 88.73            O9-S8-C2-C1=165.76            O9-S8-C2-C3=  6.22            O9-S8-C2-N7=277.49            
C2-S8-N7-N5=267.93            C2-S8-N7-H18=109.23           O9-S8-N7-C2=104.40            O9-S8-N7-N5= 12.34            
O9-S8-N7-H18=213.63           
           -------------------------------------------------
          |                Final Singlepoint                |
           -------------------------------------------------

          ...................................................
          :                      SETUP                      :
          :.................................................:
          :  # basis functions                  51          :
          :  # atomic orbitals                  50          :
          :  # shells                           28          :
          :  # electrons                        51          :
          :  max. iterations                   250          :
          :  Hamiltonian                  GFN2-xTB          :
          :  restarted?                      false          :
          :  GBSA solvation                  false          :
          :  PC potential                    false          :
          :  electronic temp.          300.0000000     K    :
          :  accuracy                    1.0000000          :
          :  -> integral cutoff          0.2500000E+02      :
          :  -> integral neglect         0.1000000E-07      :
          :  -> SCF convergence          0.1000000E-05 Eh   :
          :  -> wf. convergence          0.1000000E-03 e    :
          :  Broyden damping             0.4000000          :
          :  net charge                          0          :
          :  unpaired electrons                  0          :
          ...................................................

 iter      E             dE          RMSdq      gap      omega  full diag
   1    -28.6074948 -0.286075E+02  0.211E-04    0.79       0.0  T
   2    -28.6074948  0.241975E-10  0.155E-04    0.79     152.2  T
   3    -28.6074948 -0.192944E-09  0.105E-04    0.79     224.7  T

   *** convergence criteria satisfied after 3 iterations ***

         #    Occupation            Energy/Eh            Energy/eV
      -------------------------------------------------------------
         1        2.0000           -0.7031644             -19.1341
       ...           ...                  ...                  ...
        20        2.0000           -0.4582116             -12.4686
        21        2.0000           -0.4550309             -12.3820
        22        2.0000           -0.4262153             -11.5979
        23        2.0000           -0.4116543             -11.2017
        24        2.0000           -0.3842533             -10.4561
        25        2.0000           -0.3305484              -8.9947
        26        1.0000           -0.2689839              -7.3194 (HOMO)
        27        0.0000           -0.2401171              -6.5339 (LUMO)
        28                         -0.2133514              -5.8056
        29                         -0.1612130              -4.3868
        30                         -0.1086103              -2.9554
        31                         -0.0123237              -0.3353
       ...                                ...                  ...
        50                          0.8623869              23.4667
      -------------------------------------------------------------
                  HL-Gap            0.0288667 Eh            0.7855 eV
             Fermi-level           -0.2771583 Eh           -7.5419 eV

 SCC (total)                   0 d,  0 h,  0 min,  0.744 sec
 SCC setup                      ...        0 min,  0.014 sec (  1.910%)
 Dispersion                     ...        0 min,  0.061 sec (  8.158%)
 classical contributions        ...        0 min,  0.034 sec (  4.632%)
 integral evaluation            ...        0 min,  0.092 sec ( 12.389%)
 iterations                     ...        0 min,  0.351 sec ( 47.193%)
 molecular gradient             ...        0 min,  0.191 sec ( 25.691%)
 printout                       ...        0 min,  0.000 sec (  0.025%)

         :::::::::::::::::::::::::::::::::::::::::::::::::::::
         ::                     SUMMARY                     ::
         :::::::::::::::::::::::::::::::::::::::::::::::::::::
         :: total energy             -28.297047477530 Eh    ::
         :: gradient norm              0.000777315106 Eh/a0 ::
         :: HOMO-LUMO gap              0.785503864635 eV    ::
         ::.................................................::
         :: SCC energy               -28.607430449560 Eh    ::
         :: -> isotropic ES            0.040540752521 Eh    ::
         :: -> anisotropic ES          0.001046779865 Eh    ::
         :: -> anisotropic XC          0.013396014720 Eh    ::
         :: -> dispersion             -0.016196531751 Eh    ::
         :: repulsion energy           0.308130554353 Eh    ::
         :: add. restraining           0.002252417677 Eh    ::
         :: total charge              -0.000000000000 e     ::
         :::::::::::::::::::::::::::::::::::::::::::::::::::::

           -------------------------------------------------
          |                Property Printout                |
           -------------------------------------------------

    * Orbital Energies and Occupations

         #    Occupation            Energy/Eh            Energy/eV
      -------------------------------------------------------------
         1        2.0000           -0.7031644             -19.1341
       ...           ...                  ...                  ...
        14        2.0000           -0.5041764             -13.7193
        15        2.0000           -0.4988259             -13.5737
        16        2.0000           -0.4928159             -13.4102
        17        2.0000           -0.4798378             -13.0571
        18        2.0000           -0.4672657             -12.7149
        19        2.0000           -0.4634885             -12.6122
        20        2.0000           -0.4582116             -12.4686
        21        2.0000           -0.4550309             -12.3820
        22        2.0000           -0.4262153             -11.5979
        23        2.0000           -0.4116543             -11.2017
        24        2.0000           -0.3842533             -10.4561
        25        2.0000           -0.3305484              -8.9947
        26        1.0000           -0.2689839              -7.3194 (HOMO)
        27        0.0000           -0.2401171              -6.5339 (LUMO)
        28                         -0.2133514              -5.8056
        29                         -0.1612130              -4.3868
        30                         -0.1086103              -2.9554
        31                         -0.0123237              -0.3353
        32                          0.0383953               1.0448
        33                          0.0615253               1.6742
        34                          0.0878399               2.3902
        35                          0.1008024               2.7430
        36                          0.1156152               3.1460
        37                          0.1323055               3.6002
       ...                                ...                  ...
        50                          0.8623869              23.4667
      -------------------------------------------------------------
                  HL-Gap            0.0288667 Eh            0.7855 eV
             Fermi-level           -0.2771583 Eh           -7.5419 eV

     #   Z          covCN         q      C6AA      α(0)
     1   6 C        3.753    -0.107    22.595     6.778
     2   6 C        3.366     0.024    24.393     7.736
     3   6 C        2.923    -0.071    29.761     8.946
     4   6 C        2.904     0.022    27.510     8.600
     5   7 N        2.833     0.056    20.267     6.686
     6   6 C        3.690    -0.053    21.719     6.670
     7   7 N        3.196    -0.199    25.308     7.472
     8  16 S        2.382     0.167   134.417    19.513
     9   8 O        0.859    -0.428    22.237     6.322
    10   1 H        0.925     0.063     2.163     2.300
    11   1 H        0.925     0.069     2.096     2.264
    12   1 H        0.924     0.051     2.310     2.377
    13   1 H        0.926     0.047     2.356     2.400
    14   1 H        0.926     0.046     2.372     2.409
    15   1 H        0.925     0.064     2.157     2.297
    16   1 H        0.924     0.051     2.307     2.375
    17   1 H        0.924     0.069     2.098     2.265
    18   1 H        0.859     0.128     1.564     1.959

 Mol. C6AA /au·bohr⁶  :       4086.662144
 Mol. C8AA /au·bohr⁸  :     106829.700882
 Mol. α(0) /au        :         99.369585


Wiberg/Mayer (AO) data.
largest (>0.10) Wiberg bond orders for each atom

 ---------------------------------------------------------------------------
     #   Z sym  total        # sym  WBO       # sym  WBO       # sym  WBO
 ---------------------------------------------------------------------------
     1   6 C    3.995 --     2 C    1.055    10 H    0.975    12 H    0.966
                            11 H    0.955
     2   6 C    3.910 --     3 C    1.313     1 C    1.055     8 S    0.684
                             7 N    0.641     9 O    0.108
     3   6 C    3.969 --     4 C    1.517     2 C    1.313    13 H    0.949
     4   6 C    3.963 --     3 C    1.517     5 N    1.229    14 H    0.965
     5   7 N    3.571 --     4 C    1.229     7 N    1.096     6 C    1.002
     6   6 C    3.971 --     5 N    1.002    15 H    0.978    16 H    0.973
                            17 H    0.971
     7   7 N    3.285 --     5 N    1.096    18 H    0.937     2 C    0.641
                             8 S    0.375
     8  16 S    3.162 --     9 O    1.844     2 C    0.684     7 N    0.375
     9   8 O    2.106 --     8 S    1.844     2 C    0.108
    10   1 H    0.996 --     1 C    0.975
    11   1 H    0.994 --     1 C    0.955
    12   1 H    0.997 --     1 C    0.966
    13   1 H    0.998 --     3 C    0.949
    14   1 H    0.998 --     4 C    0.965
    15   1 H    0.996 --     6 C    0.978
    16   1 H    0.997 --     6 C    0.973
    17   1 H    0.995 --     6 C    0.971
    18   1 H    0.983 --     7 N    0.937
 ---------------------------------------------------------------------------

Topologies differ in total number of bonds
Writing topology from bond orders to xtbtopo.mol

molecular dipole:
                 x           y           z       tot (Debye)
 q only:        0.067       0.687      -1.575
   full:        0.425       0.636      -2.025       5.502
molecular quadrupole (traceless):
                xx          xy          yy          xz          yz          zz
 q only:       10.120      -0.868       0.678      -1.999       3.940     -10.798
  q+dip:       10.202       0.383       2.547      -0.195       3.002     -12.749
   full:       10.138       0.414       2.060      -0.426       2.724     -12.198

           -------------------------------------------------
          |                Geometry Summary                 |
           -------------------------------------------------

      molecular mass/u    :      145.2027450
   center of mass at/Å    :       -0.1242962      -0.0214436       0.6190551
  moments of inertia/u·Å² :        0.2609362E+03   0.3669161E+03   0.4637289E+03
rotational constants/cm⁻¹ :        0.6460442E-01   0.4594411E-01   0.3635234E-01

 * 15 selected distances

     #   Z          #   Z                                           value/Å
     1   6 C        2   6 C                                       1.4724575 (max)
     2   6 C        3   6 C                                       1.3984346
     3   6 C        4   6 C                                       1.3681414
     4   6 C        5   7 N                                       1.3530331
     5   7 N        6   6 C                                       1.4329419
     5   7 N        7   7 N                                       1.3658421
     1   6 C       10   1 H                                       1.0865292
     1   6 C       11   1 H                                       1.0897690
     1   6 C       12   1 H                                       1.0918024
     3   6 C       13   1 H                                       1.0742619
     4   6 C       14   1 H                                       1.0745353
     6   6 C       15   1 H                                       1.0878974
     6   6 C       16   1 H                                       1.0949193
     6   6 C       17   1 H                                       1.0939541
     7   7 N       18   1 H                                       1.0320851 (min)

 * 5 distinct bonds (by element types)

   Z      Z             #   av. dist./Å        max./Å        min./Å
   1 H    6 C           8     1.0867086     1.0949193     1.0742619
   6 C    6 C           3     1.4130112     1.4724575     1.3681414
   1 H    7 N           1     1.0320851     1.0320851     1.0320851
   6 C    7 N           2     1.3929875     1.4329419     1.3530331
   7 N    7 N           1     1.3658421     1.3658421     1.3658421


optimized geometry written to: xtbopt.xyz


           -------------------------------------------------
          | TOTAL ENERGY              -28.297047477530 Eh   |
          | GRADIENT NORM               0.000777315106 Eh/α |
          | HOMO-LUMO GAP               0.785503864635 eV   |
           -------------------------------------------------

------------------------------------------------------------------------
 * finished run on 2026/01/15 at 10:44:31.033     
------------------------------------------------------------------------
 total:
 * wall-time:     0 d,  0 h,  1 min, 30.437 sec
 *  cpu-time:     0 d,  0 h,  4 min, 47.312 sec
 * ratio c/w:     3.177 speedup
 SCF:
 * wall-time:     0 d,  0 h,  0 min,  1.526 sec
 *  cpu-time:     0 d,  0 h,  0 min,  6.810 sec
 * ratio c/w:     4.464 speedup
 ANC optimizer:
 * wall-time:     0 d,  0 h,  1 min, 28.667 sec
 *  cpu-time:     0 d,  0 h,  4 min, 39.947 sec
 * ratio c/w:     3.157 speedup

