17
 energy: -27.836974721497 gnorm: 0.000783704888 xtb: 6.7.1 (edcfbbe)
C           -2.53527324371322        0.82198133581556       -0.56014609938699
C           -1.34289843072976        0.00146622651536       -0.31530923306829
C           -0.68322007089449       -1.02410074031542       -0.99129499745135
C            0.64171487703891       -1.09353159045997       -0.65021663143536
N            1.05743875538474       -0.01552733528502        0.06134714871946
C            2.41057950044851        0.16912039703655        0.51757698302383
N            0.12619497083118        0.81700764170901        0.48896998950430
S           -0.99070903347648       -0.34869943845237        1.81271544911460
O           -0.17762284626822       -1.57209414749706        1.80370580837951
H           -2.63514699790972        1.57518992213850        0.21636453163917
H           -3.42338842828371        0.18905812197950       -0.55300644196382
H           -2.46704931899520        1.32057650434784       -1.52809986029503
H           -1.18031382392823       -1.71926048915151       -1.64156332936382
H            1.35837645740520       -1.83355338573279       -0.95357841199772
H            2.62668872173263       -0.50208469507056        1.35249171370008
H            3.10723144115372       -0.02974602586218       -0.29694495003043
H            2.51824447021103        1.19937769826541        0.85269233089343
