31
 energy: -37.650557743596 gnorm: 0.000387661909 xtb: 6.5.1 (b24c23e)
Zr          -1.31196075797743       -0.14029947107927        0.56633115535349
C           -1.66823247762658        1.06490272251240       -1.50974604458265
C           -0.47811324600893       -2.34943995572661        1.21314785353288
C            0.47015642890204       -1.82633874210458        0.29816508861668
C           -0.15750221777148       -1.71031951485156       -0.96393291338346
C           -1.49391174203546       -2.15547104734733       -0.83290499094474
C           -1.69428562408895       -2.55086698870290        0.51538888626226
H           -0.26842975943122       -2.69688878243185        2.21906859930384
H            1.53016711808186       -1.69767275520986        0.48804135621285
H            0.34544190470955       -1.48035893030665       -1.89738802923307
H           -2.19377063012048       -2.31303414407353       -1.64502712086317
H           -2.55632250813155       -3.08536777532788        0.89880035752590
C            0.17510390169436        0.36313091382443        2.45724051620093
C           -1.15931958667757        0.56242553760841        2.89128656372698
C           -1.67346553607596        1.68951144745445        2.19604951148148
C           -0.67644126268217        2.15363009549681        1.31266001926420
C            0.46371483340495        1.32381805415604        1.45956013008453
H            0.89448366488776       -0.30507402178597        2.91575183281349
H           -1.62885936332319        0.07406888434285        3.73993198291187
H           -2.59871636124375        2.20307703321595        2.42549639075225
H           -0.72072727458937        3.07228071321581        0.73921804878778
H            1.44190341544652        1.50976265063226        1.02681559401613
H           -0.64047016832420        0.97962136274275       -1.08479045935355
H           -1.80984299611013        0.37399542725960       -2.34205658108666
H           -1.81119711089863        2.08275767127254       -1.86473113524323
C           -3.54734232765052       -0.11623009196489        0.56273687949180
C           -3.46735835887467        0.92069312319620       -0.45242130424138
H           -3.54343105986705        1.95062381135696       -0.10340911651840
H           -4.02387174233056        0.75670305210712       -1.37208922698325
H           -3.91358132211453        0.23042147338658        1.53508108611331
H           -4.06889819319752       -1.01452680286978        0.22080938999912
