      -----------------------------------------------------------      
     |                   =====================                   |     
     |                           x T B                           |     
     |                   =====================                   |     
     |                         S. Grimme                         |     
     |          Mulliken Center for Theoretical Chemistry        |     
     |                    University of Bonn                     |     
      -----------------------------------------------------------      

   * xtb version 6.7.1 (edcfbbe) compiled by 'conda@c0858423619e' on 2025-09-04

   xtb is free software: you can redistribute it and/or modify it under
   the terms of the GNU Lesser General Public License as published by
   the Free Software Foundation, either version 3 of the License, or
   (at your option) any later version.
   
   xtb is distributed in the hope that it will be useful,
   but WITHOUT ANY WARRANTY; without even the implied warranty of
   MERCHANTABILITY or FITNESS FOR A PARTICULAR PURPOSE.  See the
   GNU Lesser General Public License for more details.
   
   Cite this work as:
   * C. Bannwarth, E. Caldeweyher, S. Ehlert, A. Hansen, P. Pracht,
     J. Seibert, S. Spicher, S. Grimme, WIREs Comput. Mol. Sci., 2020, 11,
     e01493. DOI: 10.1002/wcms.1493
   
   for GFN2-xTB:
   * C. Bannwarth, S. Ehlert and S. Grimme., J. Chem. Theory Comput., 2019,
     15, 1652-1671. DOI: 10.1021/acs.jctc.8b01176
   for GFN1-xTB:
   * S. Grimme, C. Bannwarth, P. Shushkov, J. Chem. Theory Comput., 2017,
     13, 1989-2009. DOI: 10.1021/acs.jctc.7b00118
   for GFN0-xTB:
   * P. Pracht, E. Caldeweyher, S. Ehlert, S. Grimme, ChemRxiv, 2019, preprint.
     DOI: 10.26434/chemrxiv.8326202.v1
   for GFN-FF:
   * S. Spicher and S. Grimme, Angew. Chem. Int. Ed., 2020, 59, 15665-15673.
     DOI: 10.1002/anie.202004239
   
   for ALPB and GBSA implicit solvation:
   * S. Ehlert, M. Stahn, S. Spicher, S. Grimme, J. Chem. Theory Comput.,
     2021, 17, 4250-4261. DOI: 10.1021/acs.jctc.1c00471
   
   for ddCOSMO and CPCM-X implicit solvation:
   * M. Stahn, S. Ehlert, S. Grimme, J. Phys. Chem. A,
     2023, XX, XXXX-XXXX. DOI: 10.1021/acs.jpca.3c04382
   
   for DFT-D4:
   * E. Caldeweyher, C. Bannwarth and S. Grimme, J. Chem. Phys., 2017,
     147, 034112. DOI: 10.1063/1.4993215
   * E. Caldeweyher, S. Ehlert, A. Hansen, H. Neugebauer, S. Spicher,
     C. Bannwarth and S. Grimme, J. Chem. Phys., 2019, 150, 154122.
     DOI: 10.1063/1.5090222
   * E. Caldeweyher, J.-M. Mewes, S. Ehlert and S. Grimme, Phys. Chem. Chem. Phys.
     2020, 22, 8499-8512. DOI: 10.1039/D0CP00502A
   
   for sTDA-xTB:
   * S. Grimme and C. Bannwarth, J. Chem. Phys., 2016, 145, 054103.
     DOI: 10.1063/1.4959605
   
   in the mass-spec context:
   * V. Asgeirsson, C. Bauer and S. Grimme, Chem. Sci., 2017, 8, 4879.
     DOI: 10.1039/c7sc00601b
   * J. Koopman and S. Grimme, ACS Omega 2019, 4, 12, 15120-15133.
     DOI: 10.1021/acsomega.9b02011
   
   for metadynamics refer to:
   * S. Grimme, J. Chem. Theory Comput., 2019, 155, 2847-2862
     DOI: 10.1021/acs.jctc.9b00143
   
   for SPH calculations refer to:
   * S. Spicher and S. Grimme, J. Chem. Theory Comput., 2021, 17, 1701-1714
     DOI: 10.1021/acs.jctc.0c01306
   
   for ONIOM refer to:
   * C. Plett, A. Katbashev, S. Ehlert, S. Grimme, M. Bursch,
     Phys. Chem. Chem. Phys., 2023, 25, 17860-17868. DOI: 10.1039/D3CP02178E
   
   for DIPRO refer to:
   * J. Kohn, N. Gildemeister, S. Grimme, D. Fazzi, A. Hansen,
     J. Chem. Phys., 2023, just accepted.
   
   for PTB refer to:
   * S. Grimme, M. Mueller, A. Hansen, J. Chem. Phys., 2023, 158, 124111.
     DOI: 10.1063/5.0137838
   
   with help from (in alphabetical order)
   P. Atkinson, C. Bannwarth, F. Bohle, G. Brandenburg, E. Caldeweyher
   M. Checinski, S. Dohm, S. Ehlert, S. Ehrlich, I. Gerasimov, C. Hölzer
   A. Katbashev, J. Kohn, J. Koopman, C. Lavigne, S. Lehtola, F. März, M. Müller,
   F. Musil, H. Neugebauer, J. Pisarek, C. Plett, P. Pracht, F. Pultar,
   J. Seibert, P. Shushkov, S. Spicher, M. Stahn, M. Steiner, T. Strunk,
   J. Stückrath, T. Rose, and J. Unsleber
   
 * started run on 2026/01/15 at 10:08:05.914     
   ID    Z sym.   atoms
    1    6 C      1-4, 7
    2    7 N      5, 6
    3   16 S      8
    4    8 O      9
    5    1 H      10-17

           -------------------------------------------------
          |                Calculation Setup                |
           -------------------------------------------------

          program call               : /h/28/cicsy/miniforge3/envs/elagente/bin/xtb N5-Me_TDSO_pathwayA.xyz --opt --gfn 2 -P 4 --chrg 0
          coordinate file            : N5-Me_TDSO_pathwayA.xyz
          omp threads                :                     4


           -------------------------------------------------
          |                 G F N 2 - x T B                 |
           -------------------------------------------------

        Reference                      10.1021/acs.jctc.8b01176
      * Hamiltonian:
        H0-scaling (s, p, d)           1.850000    2.230000    2.230000
        zeta-weighting                 0.500000
      * Dispersion:
        s8                             2.700000
        a1                             0.520000
        a2                             5.000000
        s9                             5.000000
      * Repulsion:
        kExp                           1.500000    1.000000
        rExp                           1.000000
      * Coulomb:
        alpha                          2.000000
        third order                    shell-resolved
        anisotropic                    true
        a3                             3.000000
        a5                             4.000000
        cn-shift                       1.200000
        cn-exp                         4.000000
        max-rad                        5.000000


          ...................................................
          :                      SETUP                      :
          :.................................................:
          :  # basis functions                  50          :
          :  # atomic orbitals                  49          :
          :  # shells                           27          :
          :  # electrons                        50          :
          :  max. iterations                   250          :
          :  Hamiltonian                  GFN2-xTB          :
          :  restarted?                      false          :
          :  GBSA solvation                  false          :
          :  PC potential                    false          :
          :  electronic temp.          300.0000000     K    :
          :  accuracy                    1.0000000          :
          :  -> integral cutoff          0.2500000E+02      :
          :  -> integral neglect         0.1000000E-07      :
          :  -> SCF convergence          0.1000000E-05 Eh   :
          :  -> wf. convergence          0.1000000E-03 e    :
          :  Broyden damping             0.4000000          :
          :  net charge                          0          :
          :  unpaired electrons                  0          :
          ...................................................

 iter      E             dE          RMSdq      gap      omega  full diag
   1    -28.0823491 -0.280823E+02  0.478E+00    2.66       0.0  T
   2    -28.1294836 -0.471345E-01  0.364E+00    2.79       1.0  T
   3    -28.1405340 -0.110504E-01  0.170E+00    2.57       1.0  T
   4    -28.1435247 -0.299070E-02  0.845E-01    2.65       1.0  T
   5    -28.1493927 -0.586805E-02  0.284E-01    2.58       1.0  T
   6    -28.1494215 -0.287183E-04  0.549E-02    2.58       1.0  T
   7    -28.1494272 -0.575452E-05  0.404E-02    2.58       1.0  T
   8    -28.1494368 -0.957897E-05  0.218E-02    2.58       1.1  T
   9    -28.1494377 -0.964340E-06  0.512E-03    2.58       4.7  T
  10    -28.1494379 -0.101127E-06  0.267E-03    2.58       9.1  T
  11    -28.1494379 -0.625744E-08  0.935E-04    2.58      25.9  T
  12    -28.1494379 -0.346486E-08  0.301E-04    2.58      80.5  T

   *** convergence criteria satisfied after 12 iterations ***

         #    Occupation            Energy/Eh            Energy/eV
      -------------------------------------------------------------
         1        2.0000           -0.7574001             -20.6099
       ...           ...                  ...                  ...
        19        2.0000           -0.4738223             -12.8934
        20        2.0000           -0.4664371             -12.6924
        21        2.0000           -0.4377567             -11.9120
        22        2.0000           -0.4208184             -11.4511
        23        2.0000           -0.3913279             -10.6486
        24        2.0000           -0.3811233             -10.3709
        25        2.0000           -0.3727653             -10.1435 (HOMO)
        26                         -0.2780040              -7.5649 (LUMO)
        27                         -0.2186714              -5.9504
        28                         -0.1968834              -5.3575
        29                         -0.1524033              -4.1471
        30                         -0.0969106              -2.6371
       ...                                ...                  ...
        49                          0.7694043              20.9366
      -------------------------------------------------------------
                  HL-Gap            0.0947614 Eh            2.5786 eV
             Fermi-level           -0.3253847 Eh           -8.8542 eV

 SCC (total)                   0 d,  0 h,  0 min,  0.873 sec
 SCC setup                      ...        0 min,  0.008 sec (  0.863%)
 Dispersion                     ...        0 min,  0.001 sec (  0.078%)
 classical contributions        ...        0 min,  0.007 sec (  0.839%)
 integral evaluation            ...        0 min,  0.001 sec (  0.126%)
 iterations                     ...        0 min,  0.787 sec ( 90.196%)
 molecular gradient             ...        0 min,  0.067 sec (  7.715%)
 printout                       ...        0 min,  0.002 sec (  0.180%)

         :::::::::::::::::::::::::::::::::::::::::::::::::::::
         ::                     SUMMARY                     ::
         :::::::::::::::::::::::::::::::::::::::::::::::::::::
         :: total energy             -27.867209491612 Eh    ::
         :: gradient norm              0.123791532831 Eh/a0 ::
         :: HOMO-LUMO gap              2.578588002500 eV    ::
         ::.................................................::
         :: SCC energy               -28.149393808235 Eh    ::
         :: -> isotropic ES            0.051871955008 Eh    ::
         :: -> anisotropic ES          0.000617100840 Eh    ::
         :: -> anisotropic XC          0.018755562293 Eh    ::
         :: -> dispersion             -0.014954223343 Eh    ::
         :: repulsion energy           0.282184316622 Eh    ::
         :: add. restraining           0.000000000000 Eh    ::
         :: total charge               0.000000000000 e     ::
         :::::::::::::::::::::::::::::::::::::::::::::::::::::

      ----------------------------------------------------------- 
     |                   =====================                   |
     |                        A N C O P T                        |
     |                   =====================                   |
     |               Approximate Normal Coordinate               |
     |                Rational Function Optimizer                |
      ----------------------------------------------------------- 
      ----------------------------------------------------------- 
     |                   =====================                   |
     |                        A N C O P T                        |
     |                   =====================                   |
     |               Approximate Normal Coordinate               |
     |                Rational Function Optimizer                |
      ----------------------------------------------------------- 

          ...................................................
          :                      SETUP                      :
          :.................................................:
          :   optimization level            normal          :
          :   max. optcycles                   200          :
          :   ANC micro-cycles                  20          :
          :   degrees of freedom                45          :
          :.................................................:
          :   RF solver                   davidson          :
          :   write xtbopt.log                true          :
          :   linear?                        false          :
          :   energy convergence         0.5000000E-05 Eh   :
          :   grad. convergence          0.1000000E-02 Eh/α :
          :   maxmium RF displ.          1.0000000          :
          :   Hlow (freq-cutoff)         0.1000000E-01      :
          :   Hmax (freq-cutoff)         5.0000000          :
          :   S6 in model hess.         20.0000000          :
          ...................................................

generating ANC from exact Hessian ...
Using Lindh-Hessian (1995)
 Shifting diagonal of input Hessian by    6.0944949265376875E-003
 Lowest  eigenvalues of input Hessian
    0.000000    0.000000    0.000000    0.000000    0.000000    0.000000
    0.010000    0.012630    0.014564    0.016105    0.017721    0.021885
    0.027914    0.031680    0.038381    0.050167    0.055638    0.066339
 Highest eigenvalues
    1.355861    1.436874    1.580398    1.875815    2.001196    2.113235


........................................................................
.............................. CYCLE    1 ..............................
........................................................................

 iter      E             dE          RMSdq      gap      omega  full diag
   1    -28.1494379 -0.281494E+02  0.907E-05    2.58       0.0  T
   2    -28.1494379 -0.106333E-10  0.584E-05    2.58     415.6  T
   3    -28.1494379 -0.199307E-11  0.430E-05    2.58     564.2  T
     SCC iter.                  ...        0 min,  0.284 sec
     gradient                   ...        0 min,  0.085 sec
 * total energy  :   -27.8672095 Eh     change       -0.2249223E-09 Eh
   gradient norm :     0.1237902 Eh/α   predicted     0.0000000E+00 (-100.00%)
   displ. norm   :     0.3351211 α      lambda       -0.2078100E-01
   maximum displ.:     0.1681118 α      in ANC's #9, #26, #11, ...

........................................................................
.............................. CYCLE    2 ..............................
........................................................................

 iter      E             dE          RMSdq      gap      omega  full diag
   1    -28.1899326 -0.281899E+02  0.453E-01    2.65       0.0  T
   2    -28.1903071 -0.374488E-03  0.316E-01    2.72       1.0  T
   3    -28.1907941 -0.487033E-03  0.165E-01    2.69       1.0  T
   4    -28.1908737 -0.796267E-04  0.696E-02    2.70       1.0  T
   5    -28.1908995 -0.258187E-04  0.253E-02    2.70       1.0  T
   6    -28.1909031 -0.356501E-05  0.142E-02    2.70       1.7  T
   7    -28.1909045 -0.136215E-05  0.310E-03    2.70       7.8  T
   8    -28.1909045 -0.176328E-07  0.156E-03    2.70      15.6  T
   9    -28.1909045 -0.341734E-08  0.427E-04    2.70      56.8  T
  10    -28.1909045 -0.180346E-09  0.160E-04    2.70     151.8  T
     SCC iter.                  ...        0 min,  0.715 sec
     gradient                   ...        0 min,  0.095 sec
 * total energy  :   -27.8821432 Eh     change       -0.1493375E-01 Eh
   gradient norm :     0.0695267 Eh/α   predicted    -0.1155741E-01 ( -22.61%)
   displ. norm   :     0.3058705 α      lambda       -0.8399211E-02
   maximum displ.:     0.1569457 α      in ANC's #9, #6, #8, ...

........................................................................
.............................. CYCLE    3 ..............................
........................................................................

 iter      E             dE          RMSdq      gap      omega  full diag
   1    -28.2116075 -0.282116E+02  0.428E-01    2.71       0.0  T
   2    -28.2120519 -0.444416E-03  0.334E-01    2.79       1.0  T
   3    -28.2128956 -0.843631E-03  0.138E-01    2.76       1.0  T
   4    -28.2129018 -0.621958E-05  0.782E-02    2.77       1.0  T
   5    -28.2129323 -0.305112E-04  0.268E-02    2.77       1.0  T
   6    -28.2129389 -0.664143E-05  0.115E-02    2.77       2.1  T
   7    -28.2129395 -0.561972E-06  0.248E-03    2.76       9.8  T
   8    -28.2129395 -0.124755E-07  0.110E-03    2.77      22.0  T
   9    -28.2129395 -0.197355E-08  0.380E-04    2.77      63.8  T
  10    -28.2129395 -0.205713E-09  0.149E-04    2.77     162.5  T
     SCC iter.                  ...        0 min,  0.625 sec
     gradient                   ...        0 min,  0.002 sec
 * total energy  :   -27.8866768 Eh     change       -0.4533581E-02 Eh
   gradient norm :     0.0193961 Eh/α   predicted    -0.4592508E-02 (   1.30%)
   displ. norm   :     0.1555119 α      lambda       -0.7972592E-03
   maximum displ.:     0.0864801 α      in ANC's #6, #5, #4, ...

........................................................................
.............................. CYCLE    4 ..............................
........................................................................

 iter      E             dE          RMSdq      gap      omega  full diag
   1    -28.2108440 -0.282108E+02  0.128E-01    2.76       0.0  T
   2    -28.2108698 -0.258241E-04  0.707E-02    2.76       1.0  T
   3    -28.2108711 -0.123623E-05  0.338E-02    2.76       1.0  T
   4    -28.2108693  0.178260E-05  0.174E-02    2.76       1.4  T
   5    -28.2108728 -0.354681E-05  0.585E-03    2.76       4.1  T
   6    -28.2108729 -0.713171E-07  0.178E-03    2.76      13.6  T
   7    -28.2108729 -0.287946E-07  0.581E-04    2.76      41.7  T
   8    -28.2108729 -0.149294E-08  0.291E-04    2.76      83.3  T
     SCC iter.                  ...        0 min,  0.346 sec
     gradient                   ...        0 min,  0.002 sec
 * total energy  :   -27.8872289 Eh     change       -0.5520799E-03 Eh
   gradient norm :     0.0072219 Eh/α   predicted    -0.4082704E-03 ( -26.05%)
   displ. norm   :     0.1367770 α      lambda       -0.2782557E-03
   maximum displ.:     0.0841961 α      in ANC's #6, #4, #5, ...

........................................................................
.............................. CYCLE    5 ..............................
........................................................................

 iter      E             dE          RMSdq      gap      omega  full diag
   1    -28.2095245 -0.282095E+02  0.943E-02    2.77       0.0  T
   2    -28.2095344 -0.989828E-05  0.492E-02    2.76       1.0  T
   3    -28.2095346 -0.181051E-06  0.217E-02    2.77       1.1  T
   4    -28.2095349 -0.299937E-06  0.108E-02    2.76       2.3  T
   5    -28.2095359 -0.993184E-06  0.439E-03    2.77       5.5  T
   6    -28.2095359 -0.348812E-07  0.179E-03    2.77      13.6  T
   7    -28.2095359 -0.436468E-07  0.465E-04    2.77      52.1  T
   8    -28.2095359 -0.474337E-09  0.209E-04    2.77     116.3  T
     SCC iter.                  ...        0 min,  0.690 sec
     gradient                   ...        0 min,  0.117 sec
 * total energy  :   -27.8873883 Eh     change       -0.1594287E-03 Eh
   gradient norm :     0.0026041 Eh/α   predicted    -0.1417321E-03 ( -11.10%)
   displ. norm   :     0.0634680 α      lambda       -0.4414658E-04
   maximum displ.:     0.0398832 α      in ANC's #1, #6, #4, ...

........................................................................
.............................. CYCLE    6 ..............................
........................................................................

 iter      E             dE          RMSdq      gap      omega  full diag
   1    -28.2098638 -0.282099E+02  0.307E-02    2.77       0.0  T
   2    -28.2098641 -0.260111E-06  0.162E-02    2.77       1.5  T
   3    -28.2098631  0.920461E-06  0.924E-03    2.77       2.6  T
   4    -28.2098643 -0.115961E-05  0.291E-03    2.77       8.3  T
   5    -28.2098643 -0.143612E-07  0.107E-03    2.77      22.7  T
   6    -28.2098643 -0.652308E-08  0.396E-04    2.77      61.3  T
   7    -28.2098643 -0.134407E-08  0.162E-04    2.77     149.9  T
     SCC iter.                  ...        0 min,  0.599 sec
     gradient                   ...        0 min,  0.168 sec
 * total energy  :   -27.8874246 Eh     change       -0.3631298E-04 Eh
   gradient norm :     0.0022058 Eh/α   predicted    -0.2216147E-04 ( -38.97%)
   displ. norm   :     0.1273888 α      lambda       -0.7163174E-04
   maximum displ.:     0.0936378 α      in ANC's #1, #6, #4, ...

........................................................................
.............................. CYCLE    7 ..............................
........................................................................

 iter      E             dE          RMSdq      gap      omega  full diag
   1    -28.2106276 -0.282106E+02  0.524E-02    2.78       0.0  T
   2    -28.2106287 -0.112130E-05  0.293E-02    2.78       1.0  T
   3    -28.2106260  0.266779E-05  0.167E-02    2.78       1.5  T
   4    -28.2106296 -0.360612E-05  0.518E-03    2.78       4.7  T
   5    -28.2106297 -0.465468E-07  0.283E-03    2.78       8.6  T
   6    -28.2106297 -0.368890E-07  0.101E-03    2.78      24.1  T
   7    -28.2106297 -0.107092E-07  0.338E-04    2.78      71.7  T
   8    -28.2106297 -0.711502E-10  0.107E-04    2.78     225.8  T
     SCC iter.                  ...        0 min,  0.734 sec
     gradient                   ...        0 min,  0.074 sec
 * total energy  :   -27.8874787 Eh     change       -0.5405625E-04 Eh
   gradient norm :     0.0021073 Eh/α   predicted    -0.3639841E-04 ( -32.67%)
   displ. norm   :     0.1211800 α      lambda       -0.4972070E-04
   maximum displ.:     0.0974351 α      in ANC's #1, #6, #4, ...

........................................................................
.............................. CYCLE    8 ..............................
........................................................................

 iter      E             dE          RMSdq      gap      omega  full diag
   1    -28.2109949 -0.282110E+02  0.453E-02    2.79       0.0  T
   2    -28.2109958 -0.917828E-06  0.253E-02    2.79       1.0  T
   3    -28.2109941  0.163672E-05  0.143E-02    2.79       1.7  T
   4    -28.2109965 -0.239820E-05  0.412E-03    2.79       5.9  T
   5    -28.2109965  0.290608E-09  0.248E-03    2.79       9.8  T
   6    -28.2109966 -0.433258E-07  0.848E-04    2.79      28.6  T
   7    -28.2109966 -0.677662E-08  0.325E-04    2.79      74.7  T
     SCC iter.                  ...        0 min,  0.633 sec
     gradient                   ...        0 min,  0.076 sec
 * total energy  :   -27.8875209 Eh     change       -0.4216337E-04 Eh
   gradient norm :     0.0031161 Eh/α   predicted    -0.2522523E-04 ( -40.17%)
   displ. norm   :     0.1149522 α      lambda       -0.4956840E-04
   maximum displ.:     0.0926045 α      in ANC's #1, #6, #3, ...

........................................................................
.............................. CYCLE    9 ..............................
........................................................................

 iter      E             dE          RMSdq      gap      omega  full diag
   1    -28.2111141 -0.282111E+02  0.405E-02    2.79       0.0  T
   2    -28.2111148 -0.665147E-06  0.224E-02    2.79       1.1  T
   3    -28.2111135  0.126343E-05  0.126E-02    2.79       1.9  T
   4    -28.2111154 -0.183432E-05  0.323E-03    2.79       7.5  T
   5    -28.2111154  0.136469E-07  0.173E-03    2.79      14.0  T
   6    -28.2111154 -0.274148E-07  0.559E-04    2.79      43.4  T
   7    -28.2111154 -0.161051E-08  0.287E-04    2.79      84.5  T
     SCC iter.                  ...        0 min,  0.517 sec
     gradient                   ...        0 min,  0.160 sec
 * total energy  :   -27.8875665 Eh     change       -0.4563624E-04 Eh
   gradient norm :     0.0032718 Eh/α   predicted    -0.2511087E-04 ( -44.98%)
   displ. norm   :     0.1724229 α      lambda       -0.7544493E-04
   maximum displ.:     0.1324275 α      in ANC's #1, #3, #2, ...

........................................................................
.............................. CYCLE   10 ..............................
........................................................................

 iter      E             dE          RMSdq      gap      omega  full diag
   1    -28.2108138 -0.282108E+02  0.607E-02    2.79       0.0  T
   2    -28.2108155 -0.171362E-05  0.336E-02    2.79       1.0  T
   3    -28.2108138  0.169888E-05  0.158E-02    2.79       1.5  T
   4    -28.2108162 -0.235929E-05  0.565E-03    2.79       4.3  T
   5    -28.2108163 -0.153135E-06  0.286E-03    2.79       8.5  T
   6    -28.2108163 -0.115321E-07  0.143E-03    2.79      17.0  T
   7    -28.2108164 -0.217654E-07  0.482E-04    2.79      50.3  T
   8    -28.2108164 -0.351946E-09  0.135E-04    2.79     179.3  T
     SCC iter.                  ...        0 min,  0.828 sec
     gradient                   ...        0 min,  0.002 sec
 * total energy  :   -27.8876348 Eh     change       -0.6828624E-04 Eh
   gradient norm :     0.0030155 Eh/α   predicted    -0.3884323E-04 ( -43.12%)
   displ. norm   :     0.3211108 α      lambda       -0.1214872E-03
   maximum displ.:     0.2372494 α      in ANC's #1, #3, #2, ...

........................................................................
.............................. CYCLE   11 ..............................
........................................................................

 iter      E             dE          RMSdq      gap      omega  full diag
   1    -28.2094734 -0.282095E+02  0.115E-01    2.79       0.0  T
   2    -28.2094795 -0.609664E-05  0.634E-02    2.79       1.0  T
   3    -28.2094753  0.418837E-05  0.263E-02    2.79       1.0  T
   4    -28.2094807 -0.536147E-05  0.118E-02    2.79       2.1  T
   5    -28.2094816 -0.919633E-06  0.582E-03    2.79       4.2  T
   6    -28.2094817 -0.699481E-07  0.257E-03    2.79       9.4  T
   7    -28.2094818 -0.670835E-07  0.948E-04    2.79      25.6  T
   8    -28.2094818 -0.144022E-08  0.277E-04    2.79      87.5  T
     SCC iter.                  ...        0 min,  0.502 sec
     gradient                   ...        0 min,  0.102 sec
 * total energy  :   -27.8877312 Eh     change       -0.9644555E-04 Eh
   gradient norm :     0.0045801 Eh/α   predicted    -0.6700094E-04 ( -30.53%)
   displ. norm   :     0.3966247 α      lambda       -0.1137942E-03
   maximum displ.:     0.2895032 α      in ANC's #1, #3, #4, ...

........................................................................
.............................. CYCLE   12 ..............................
........................................................................

 iter      E             dE          RMSdq      gap      omega  full diag
   1    -28.2074987 -0.282075E+02  0.142E-01    2.79       0.0  T
   2    -28.2075085 -0.978182E-05  0.792E-02    2.79       1.0  T
   3    -28.2075038  0.471593E-05  0.308E-02    2.79       1.0  T
   4    -28.2075096 -0.578425E-05  0.149E-02    2.79       1.6  T
   5    -28.2075112 -0.163273E-05  0.737E-03    2.79       3.3  T
   6    -28.2075114 -0.128282E-06  0.299E-03    2.79       8.1  T
   7    -28.2075114 -0.906482E-07  0.118E-03    2.79      20.5  T
   8    -28.2075114 -0.258027E-08  0.372E-04    2.79      65.3  T
   9    -28.2075114 -0.180545E-09  0.133E-04    2.79     182.2  T
     SCC iter.                  ...        0 min,  0.709 sec
     gradient                   ...        0 min,  0.090 sec
 * total energy  :   -27.8877879 Eh     change       -0.5663420E-04 Eh
   gradient norm :     0.0077577 Eh/α   predicted    -0.6584278E-04 (  16.26%)
   displ. norm   :     0.0538655 α      lambda       -0.8623063E-04
   maximum displ.:     0.0333488 α      in ANC's #1, #4, #2, ...

........................................................................
.............................. CYCLE   13 ..............................
........................................................................

 iter      E             dE          RMSdq      gap      omega  full diag
   1    -28.2095232 -0.282095E+02  0.328E-02    2.79       0.0  T
   2    -28.2095263 -0.312077E-05  0.192E-02    2.79       1.3  T
   3    -28.2095265 -0.199413E-06  0.106E-02    2.79       2.3  T
   4    -28.2095262  0.328303E-06  0.552E-03    2.79       4.4  T
   5    -28.2095266 -0.398841E-06  0.922E-04    2.79      26.3  T
   6    -28.2095266 -0.505892E-09  0.478E-04    2.79      50.7  T
     SCC iter.                  ...        0 min,  0.306 sec
     gradient                   ...        0 min,  0.087 sec
 * total energy  :   -27.8878476 Eh     change       -0.5977012E-04 Eh
   gradient norm :     0.0039751 Eh/α   predicted    -0.4324002E-04 ( -27.66%)
   displ. norm   :     0.2633903 α      lambda       -0.1101794E-03
   maximum displ.:     0.1682383 α      in ANC's #1, #4, #2, ...

........................................................................
.............................. CYCLE   14 ..............................
........................................................................

 iter      E             dE          RMSdq      gap      omega  full diag
   1    -28.2101930 -0.282102E+02  0.951E-02    2.79       0.0  T
   2    -28.2101964 -0.336772E-05  0.531E-02    2.79       1.0  T
   3    -28.2101902  0.617304E-05  0.277E-02    2.79       1.0  T
   4    -28.2101974 -0.723836E-05  0.108E-02    2.79       2.2  T
   5    -28.2101983 -0.912927E-06  0.393E-03    2.79       6.2  T
   6    -28.2101984 -0.108184E-07  0.961E-04    2.79      25.2  T
   7    -28.2101984 -0.592824E-08  0.559E-04    2.79      43.4  T
     SCC iter.                  ...        0 min,  0.423 sec
     gradient                   ...        0 min,  0.040 sec
 * total energy  :   -27.8879366 Eh     change       -0.8894373E-04 Eh
   gradient norm :     0.0028950 Eh/α   predicted    -0.5891065E-04 ( -33.77%)
   displ. norm   :     0.4812627 α      lambda       -0.1596347E-03
   maximum displ.:     0.2862653 α      in ANC's #1, #4, #2, ...

........................................................................
.............................. CYCLE   15 ..............................
........................................................................

 iter      E             dE          RMSdq      gap      omega  full diag
   1    -28.2080029 -0.282080E+02  0.168E-01    2.80       0.0  T
   2    -28.2080114 -0.858599E-05  0.940E-02    2.79       1.0  T
   3    -28.2079875  0.239631E-04  0.506E-02    2.80       1.0  T
   4    -28.2080162 -0.287671E-04  0.152E-02    2.79       1.6  T
   5    -28.2080173 -0.101782E-05  0.612E-03    2.79       4.0  T
   6    -28.2080173 -0.514380E-07  0.143E-03    2.79      16.9  T
   7    -28.2080173 -0.135513E-08  0.917E-04    2.79      26.5  T
   8    -28.2080173 -0.253668E-08  0.425E-04    2.79      57.0  T
     SCC iter.                  ...        0 min,  0.393 sec
     gradient                   ...        0 min,  0.091 sec
 * total energy  :   -27.8880229 Eh     change       -0.8633331E-04 Eh
   gradient norm :     0.0074520 Eh/α   predicted    -0.9829644E-04 (  13.86%)
   displ. norm   :     0.1330863 α      lambda       -0.1849280E-03
   maximum displ.:     0.0735454 α      in ANC's #5, #4, #2, ...

........................................................................
.............................. CYCLE   16 ..............................
........................................................................

 iter      E             dE          RMSdq      gap      omega  full diag
   1    -28.2118126 -0.282118E+02  0.676E-02    2.79       0.0  T
   2    -28.2118140 -0.145207E-05  0.365E-02    2.79       1.0  T
   3    -28.2118090  0.506940E-05  0.242E-02    2.79       1.0  T
   4    -28.2118161 -0.713180E-05  0.702E-03    2.79       3.5  T
   5    -28.2118162 -0.129624E-06  0.205E-03    2.79      11.8  T
   6    -28.2118162 -0.311807E-08  0.906E-04    2.79      26.8  T
   7    -28.2118162 -0.572943E-08  0.463E-04    2.79      52.4  T
     SCC iter.                  ...        0 min,  0.795 sec
     gradient                   ...        0 min,  0.092 sec
 * total energy  :   -27.8881126 Eh     change       -0.8970702E-04 Eh
   gradient norm :     0.0066630 Eh/α   predicted    -0.9410137E-04 (   4.90%)
   displ. norm   :     0.2878774 α      lambda       -0.1161199E-03
   maximum displ.:     0.1553936 α      in ANC's #1, #4, #2, ...

........................................................................
.............................. CYCLE   17 ..............................
........................................................................

 iter      E             dE          RMSdq      gap      omega  full diag
   1    -28.2101122 -0.282101E+02  0.949E-02    2.80       0.0  T
   2    -28.2101147 -0.253593E-05  0.534E-02    2.79       1.0  T
   3    -28.2101085  0.619387E-05  0.257E-02    2.79       1.0  T
   4    -28.2101160 -0.746468E-05  0.823E-03    2.79       2.9  T
   5    -28.2101162 -0.193352E-06  0.380E-03    2.79       6.4  T
   6    -28.2101162 -0.630076E-07  0.152E-03    2.79      16.0  T
   7    -28.2101162 -0.202139E-07  0.628E-04    2.79      38.6  T
   8    -28.2101162 -0.421956E-09  0.243E-04    2.79      99.8  T
     SCC iter.                  ...        0 min,  0.698 sec
     gradient                   ...        0 min,  0.094 sec
 * total energy  :   -27.8882010 Eh     change       -0.8836240E-04 Eh
   gradient norm :     0.0066368 Eh/α   predicted    -0.6287352E-04 ( -28.85%)
   displ. norm   :     0.2740354 α      lambda       -0.1906443E-03
   maximum displ.:     0.1368936 α      in ANC's #2, #1, #4, ...

........................................................................
.............................. CYCLE   18 ..............................
........................................................................

 iter      E             dE          RMSdq      gap      omega  full diag
   1    -28.2094681 -0.282095E+02  0.949E-02    2.79       0.0  T
   2    -28.2094735 -0.538651E-05  0.584E-02    2.79       1.0  T
   3    -28.2094667  0.676856E-05  0.346E-02    2.79       1.0  T
   4    -28.2094773 -0.106125E-04  0.933E-03    2.79       2.6  T
   5    -28.2094776 -0.296121E-06  0.486E-03    2.79       5.0  T
   6    -28.2094776 -0.201772E-07  0.293E-03    2.79       8.3  T
   7    -28.2094777 -0.940187E-07  0.727E-04    2.79      33.3  T
   8    -28.2094777 -0.250044E-09  0.277E-04    2.79      87.5  T
     SCC iter.                  ...        0 min,  0.562 sec
     gradient                   ...        0 min,  0.108 sec
 * total energy  :   -27.8883066 Eh     change       -0.1056215E-03 Eh
   gradient norm :     0.0050246 Eh/α   predicted    -0.1024814E-03 (  -2.97%)
   displ. norm   :     0.2368912 α      lambda       -0.1156852E-03
   maximum displ.:     0.1393960 α      in ANC's #2, #4, #6, ...

........................................................................
.............................. CYCLE   19 ..............................
........................................................................

 iter      E             dE          RMSdq      gap      omega  full diag
   1    -28.2083940 -0.282084E+02  0.783E-02    2.78       0.0  T
   2    -28.2083970 -0.300518E-05  0.445E-02    2.79       1.0  T
   3    -28.2083921  0.487192E-05  0.285E-02    2.78       1.0  T
   4    -28.2084000 -0.786514E-05  0.705E-03    2.79       3.4  T
   5    -28.2083999  0.230406E-07  0.408E-03    2.79       5.9  T
   6    -28.2084001 -0.151982E-06  0.132E-03    2.79      18.4  T
   7    -28.2084001 -0.159947E-07  0.484E-04    2.79      50.1  T
   8    -28.2084001 -0.141053E-09  0.163E-04    2.79     148.6  T
     SCC iter.                  ...        0 min,  0.976 sec
     gradient                   ...        0 min,  0.095 sec
 * total energy  :   -27.8883661 Eh     change       -0.5949653E-04 Eh
   gradient norm :     0.0085277 Eh/α   predicted    -0.6108995E-04 (   2.68%)
   displ. norm   :     0.1686727 α      lambda       -0.3155408E-03
   maximum displ.:     0.0990816 α      in ANC's #2, #1, #6, ...

........................................................................
.............................. CYCLE   20 ..............................
........................................................................

 iter      E             dE          RMSdq      gap      omega  full diag
   1    -28.2147972 -0.282148E+02  0.102E-01    2.76       0.0  T
   2    -28.2148126 -0.154214E-04  0.665E-02    2.77       1.0  T
   3    -28.2148311 -0.185152E-04  0.405E-02    2.77       1.0  T
   4    -28.2148376 -0.649642E-05  0.115E-02    2.77       2.1  T
   5    -28.2148387 -0.108631E-05  0.525E-03    2.77       4.6  T
   6    -28.2148389 -0.217461E-06  0.187E-03    2.77      12.9  T
   7    -28.2148390 -0.145890E-07  0.670E-04    2.77      36.2  T
   8    -28.2148390 -0.616645E-09  0.275E-04    2.77      88.2  T
     SCC iter.                  ...        0 min,  0.603 sec
     gradient                   ...        0 min,  0.068 sec
 * total energy  :   -27.8884010 Eh     change       -0.3486614E-04 Eh
   gradient norm :     0.0092048 Eh/α   predicted    -0.1622577E-03 ( 365.37%)
   displ. norm   :     0.2146599 α      lambda       -0.2522401E-03
   maximum displ.:     0.1121560 α      in ANC's #2, #4, #1, ...
 * RMSD in coord.:     0.8127141 α      energy gain  -0.2119148E-01 Eh

generating ANC from exact Hessian ...
Using Lindh-Hessian (1995)
 Shifting diagonal of input Hessian by    5.8035798377672702E-003
 Lowest  eigenvalues of input Hessian
    0.000000    0.000000    0.000000    0.000000    0.000000    0.000000
    0.010000    0.013537    0.016041    0.016924    0.017771    0.025482
    0.029373    0.035458    0.040065    0.057638    0.066247    0.073586
 Highest eigenvalues
    1.399939    1.509901    1.777633    1.989022    2.218906    2.535539


........................................................................
.............................. CYCLE   21 ..............................
........................................................................

 iter      E             dE          RMSdq      gap      omega  full diag
   1    -28.2109474 -0.282109E+02  0.830E-02    2.77       0.0  T
   2    -28.2109514 -0.396828E-05  0.482E-02    2.77       1.0  T
   3    -28.2109457  0.574500E-05  0.266E-02    2.77       1.0  T
   4    -28.2109525 -0.680481E-05  0.798E-03    2.77       3.0  T
   5    -28.2109530 -0.541374E-06  0.282E-03    2.77       8.6  T
   6    -28.2109530 -0.526924E-08  0.112E-03    2.77      21.6  T
   7    -28.2109530 -0.111778E-07  0.486E-04    2.77      49.9  T
   8    -28.2109530 -0.133491E-08  0.240E-04    2.77     101.0  T
     SCC iter.                  ...        0 min,  0.634 sec
     gradient                   ...        0 min,  0.069 sec
 * total energy  :   -27.8885483 Eh     change       -0.1473561E-03 Eh
   gradient norm :     0.0063892 Eh/α   predicted     0.0000000E+00 (-100.00%)
   displ. norm   :     0.0603718 α      lambda       -0.1239460E-03
   maximum displ.:     0.0378757 α      in ANC's #2, #1, #4, ...

........................................................................
.............................. CYCLE   22 ..............................
........................................................................

 iter      E             dE          RMSdq      gap      omega  full diag
   1    -28.2120418 -0.282120E+02  0.320E-02    2.77       0.0  T
   2    -28.2120436 -0.171462E-05  0.219E-02    2.77       1.1  T
   3    -28.2120442 -0.673528E-06  0.125E-02    2.77       1.9  T
   4    -28.2120447 -0.506894E-06  0.476E-03    2.77       5.1  T
   5    -28.2120449 -0.162831E-06  0.175E-03    2.77      13.9  T
   6    -28.2120449  0.247042E-08  0.113E-03    2.77      21.4  T
   7    -28.2120449 -0.145893E-07  0.223E-04    2.77     109.0  T
   8    -28.2120449 -0.366960E-10  0.100E-04    2.77     241.8  T
     SCC iter.                  ...        0 min,  0.667 sec
     gradient                   ...        0 min,  0.079 sec
 * total energy  :   -27.8886405 Eh     change       -0.9212855E-04 Eh
   gradient norm :     0.0028100 Eh/α   predicted    -0.6219810E-04 ( -32.49%)
   displ. norm   :     0.1179098 α      lambda       -0.1089526E-03
   maximum displ.:     0.0836257 α      in ANC's #2, #1, #4, ...

........................................................................
.............................. CYCLE   23 ..............................
........................................................................

 iter      E             dE          RMSdq      gap      omega  full diag
   1    -28.2126304 -0.282126E+02  0.414E-02    2.78       0.0  T
   2    -28.2126332 -0.279485E-05  0.284E-02    2.78       1.0  T
   3    -28.2126341 -0.965258E-06  0.160E-02    2.78       1.5  T
   4    -28.2126349 -0.758443E-06  0.612E-03    2.78       4.0  T
   5    -28.2126352 -0.284439E-06  0.232E-03    2.78      10.5  T
   6    -28.2126352  0.835415E-08  0.147E-03    2.78      16.5  T
   7    -28.2126352 -0.268148E-07  0.274E-04    2.78      88.7  T
   8    -28.2126352 -0.501821E-10  0.118E-04    2.78     206.2  T
     SCC iter.                  ...        0 min,  0.486 sec
     gradient                   ...        0 min,  0.096 sec
 * total energy  :   -27.8887196 Eh     change       -0.7918128E-04 Eh
   gradient norm :     0.0018319 Eh/α   predicted    -0.5523442E-04 ( -30.24%)
   displ. norm   :     0.2261319 α      lambda       -0.8526017E-04
   maximum displ.:     0.1681444 α      in ANC's #2, #1, #4, ...

........................................................................
.............................. CYCLE   24 ..............................
........................................................................

 iter      E             dE          RMSdq      gap      omega  full diag
   1    -28.2119084 -0.282119E+02  0.662E-02    2.79       0.0  T
   2    -28.2119118 -0.341867E-05  0.417E-02    2.79       1.0  T
   3    -28.2119095  0.235560E-05  0.239E-02    2.79       1.0  T
   4    -28.2119136 -0.411959E-05  0.700E-03    2.79       3.5  T
   5    -28.2119139 -0.356505E-06  0.287E-03    2.79       8.4  T
   6    -28.2119139  0.111302E-07  0.168E-03    2.79      14.4  T
   7    -28.2119140 -0.398292E-07  0.317E-04    2.79      76.6  T
   8    -28.2119140 -0.559375E-10  0.116E-04    2.79     209.7  T
     SCC iter.                  ...        0 min,  0.613 sec
     gradient                   ...        0 min,  0.078 sec
 * total energy  :   -27.8888045 Eh     change       -0.8489418E-04 Eh
   gradient norm :     0.0044626 Eh/α   predicted    -0.4359780E-04 ( -48.64%)
   displ. norm   :     0.0926434 α      lambda       -0.5757578E-04
   maximum displ.:     0.0669498 α      in ANC's #2, #1, #3, ...

........................................................................
.............................. CYCLE   25 ..............................
........................................................................

 iter      E             dE          RMSdq      gap      omega  full diag
   1    -28.2118254 -0.282118E+02  0.258E-02    2.79       0.0  T
   2    -28.2118256 -0.160565E-06  0.153E-02    2.79       1.6  T
   3    -28.2118253  0.302858E-06  0.570E-03    2.79       4.3  T
   4    -28.2118257 -0.361008E-06  0.155E-03    2.79      15.6  T
   5    -28.2118257 -0.148621E-07  0.598E-04    2.79      40.6  T
   6    -28.2118257 -0.128008E-09  0.361E-04    2.79      67.2  T
     SCC iter.                  ...        0 min,  0.411 sec
     gradient                   ...        0 min,  0.077 sec
 * total energy  :   -27.8888550 Eh     change       -0.5050498E-04 Eh
   gradient norm :     0.0040423 Eh/α   predicted    -0.2903288E-04 ( -42.51%)
   displ. norm   :     0.2507478 α      lambda       -0.1494364E-03
   maximum displ.:     0.1788887 α      in ANC's #2, #1, #3, ...

........................................................................
.............................. CYCLE   26 ..............................
........................................................................

 iter      E             dE          RMSdq      gap      omega  full diag
   1    -28.2111118 -0.282111E+02  0.706E-02    2.79       0.0  T
   2    -28.2111147 -0.289833E-05  0.430E-02    2.79       1.0  T
   3    -28.2111123  0.233947E-05  0.204E-02    2.79       1.2  T
   4    -28.2111155 -0.315679E-05  0.653E-03    2.79       3.7  T
   5    -28.2111158 -0.317296E-06  0.235E-03    2.79      10.3  T
   6    -28.2111158  0.148242E-07  0.149E-03    2.79      16.2  T
   7    -28.2111158 -0.294196E-07  0.330E-04    2.79      73.6  T
   8    -28.2111158 -0.203045E-09  0.154E-04    2.79     157.8  T
     SCC iter.                  ...        0 min,  0.572 sec
     gradient                   ...        0 min,  0.089 sec
 * total energy  :   -27.8889483 Eh     change       -0.9329868E-04 Eh
   gradient norm :     0.0053507 Eh/α   predicted    -0.7942015E-04 ( -14.88%)
   displ. norm   :     0.0858058 α      lambda       -0.7363418E-04
   maximum displ.:     0.0508711 α      in ANC's #2, #1, #4, ...

........................................................................
.............................. CYCLE   27 ..............................
........................................................................

 iter      E             dE          RMSdq      gap      omega  full diag
   1    -28.2120637 -0.282121E+02  0.323E-02    2.79       0.0  T
   2    -28.2120655 -0.181052E-05  0.208E-02    2.79       1.2  T
   3    -28.2120656 -0.141345E-06  0.115E-02    2.79       2.1  T
   4    -28.2120659 -0.324267E-06  0.500E-03    2.79       4.8  T
   5    -28.2120662 -0.236167E-06  0.183E-03    2.79      13.2  T
   6    -28.2120662  0.511448E-08  0.107E-03    2.79      22.7  T
   7    -28.2120662 -0.152711E-07  0.229E-04    2.79     105.8  T
   8    -28.2120662 -0.670433E-10  0.105E-04    2.79     230.5  T
     SCC iter.                  ...        0 min,  0.686 sec
     gradient                   ...        0 min,  0.090 sec
 * total energy  :   -27.8889995 Eh     change       -0.5120395E-04 Eh
   gradient norm :     0.0035526 Eh/α   predicted    -0.3708803E-04 ( -27.57%)
   displ. norm   :     0.1998584 α      lambda       -0.7218299E-04
   maximum displ.:     0.1357169 α      in ANC's #2, #1, #3, ...

........................................................................
.............................. CYCLE   28 ..............................
........................................................................

 iter      E             dE          RMSdq      gap      omega  full diag
   1    -28.2115963 -0.282116E+02  0.568E-02    2.80       0.0  T
   2    -28.2115981 -0.182644E-05  0.343E-02    2.80       1.0  T
   3    -28.2115977  0.405620E-06  0.122E-02    2.79       2.0  T
   4    -28.2115982 -0.488110E-06  0.526E-03    2.80       4.6  T
   5    -28.2115984 -0.207858E-06  0.229E-03    2.80      10.6  T
   6    -28.2115984 -0.104598E-07  0.810E-04    2.80      29.9  T
   7    -28.2115985 -0.805209E-08  0.327E-04    2.80      74.3  T
     SCC iter.                  ...        0 min,  0.659 sec
     gradient                   ...        0 min,  0.101 sec
 * total energy  :   -27.8890459 Eh     change       -0.4638074E-04 Eh
   gradient norm :     0.0046626 Eh/α   predicted    -0.3753592E-04 ( -19.07%)
   displ. norm   :     0.1223459 α      lambda       -0.7890255E-04
   maximum displ.:     0.0835248 α      in ANC's #1, #2, #4, ...

........................................................................
.............................. CYCLE   29 ..............................
........................................................................

 iter      E             dE          RMSdq      gap      omega  full diag
   1    -28.2128900 -0.282129E+02  0.430E-02    2.80       0.0  T
   2    -28.2128911 -0.106806E-05  0.245E-02    2.80       1.0  T
   3    -28.2128904  0.700270E-06  0.102E-02    2.80       2.4  T
   4    -28.2128912 -0.850108E-06  0.403E-03    2.80       6.0  T
   5    -28.2128913 -0.124967E-06  0.190E-03    2.80      12.8  T
   6    -28.2128913 -0.639973E-08  0.887E-04    2.80      27.3  T
   7    -28.2128914 -0.852202E-08  0.277E-04    2.80      87.6  T
     SCC iter.                  ...        0 min,  0.532 sec
     gradient                   ...        0 min,  0.095 sec
 * total energy  :   -27.8890906 Eh     change       -0.4471105E-04 Eh
   gradient norm :     0.0024255 Eh/α   predicted    -0.4003998E-04 ( -10.45%)
   displ. norm   :     0.1745202 α      lambda       -0.3729421E-04
   maximum displ.:     0.1175863 α      in ANC's #2, #1, #5, ...

........................................................................
.............................. CYCLE   30 ..............................
........................................................................

 iter      E             dE          RMSdq      gap      omega  full diag
   1    -28.2119800 -0.282120E+02  0.492E-02    2.81       0.0  T
   2    -28.2119807 -0.708986E-06  0.288E-02    2.80       1.0  T
   3    -28.2119794  0.128225E-05  0.112E-02    2.81       2.2  T
   4    -28.2119810 -0.158039E-05  0.282E-03    2.81       8.6  T
   5    -28.2119810 -0.264780E-07  0.975E-04    2.81      24.9  T
   6    -28.2119810 -0.529464E-09  0.359E-04    2.81      67.6  T
     SCC iter.                  ...        0 min,  0.487 sec
     gradient                   ...        0 min,  0.092 sec
 * total energy  :   -27.8891091 Eh     change       -0.1846469E-04 Eh
   gradient norm :     0.0036519 Eh/α   predicted    -0.1921496E-04 (   4.06%)
   displ. norm   :     0.0419479 α      lambda       -0.3044712E-04
   maximum displ.:     0.0253492 α      in ANC's #1, #2, #5, ...

........................................................................
.............................. CYCLE   31 ..............................
........................................................................

 iter      E             dE          RMSdq      gap      omega  full diag
   1    -28.2126693 -0.282127E+02  0.176E-02    2.81       0.0  T
   2    -28.2126698 -0.587745E-06  0.116E-02    2.81       2.1  T
   3    -28.2126699 -0.100428E-06  0.637E-03    2.81       3.8  T
   4    -28.2126701 -0.127341E-06  0.210E-03    2.81      11.6  T
   5    -28.2126701 -0.349220E-07  0.766E-04    2.81      31.6  T
   6    -28.2126701 -0.438781E-09  0.123E-04    2.81     197.8  T
     SCC iter.                  ...        0 min,  0.341 sec
     gradient                   ...        0 min,  0.100 sec
 * total energy  :   -27.8891313 Eh     change       -0.2216525E-04 Eh
   gradient norm :     0.0020459 Eh/α   predicted    -0.1525138E-04 ( -31.19%)
   displ. norm   :     0.1336177 α      lambda       -0.2719705E-04
   maximum displ.:     0.0867839 α      in ANC's #1, #2, #5, ...

........................................................................
.............................. CYCLE   32 ..............................
........................................................................

 iter      E             dE          RMSdq      gap      omega  full diag
   1    -28.2126586 -0.282127E+02  0.381E-02    2.81       0.0  T
   2    -28.2126591 -0.448399E-06  0.226E-02    2.81       1.1  T
   3    -28.2126579  0.118781E-05  0.113E-02    2.81       2.1  T
   4    -28.2126594 -0.153358E-05  0.229E-03    2.81      10.6  T
   5    -28.2126594 -0.919628E-08  0.884E-04    2.81      27.4  T
   6    -28.2126594 -0.869051E-09  0.362E-04    2.81      67.1  T
     SCC iter.                  ...        0 min,  0.430 sec
     gradient                   ...        0 min,  0.086 sec
 * total energy  :   -27.8891486 Eh     change       -0.1736698E-04 Eh
   gradient norm :     0.0016809 Eh/α   predicted    -0.1384012E-04 ( -20.31%)
   displ. norm   :     0.0922030 α      lambda       -0.1082231E-04
   maximum displ.:     0.0568508 α      in ANC's #1, #2, #6, ...

........................................................................
.............................. CYCLE   33 ..............................
........................................................................

 iter      E             dE          RMSdq      gap      omega  full diag
   1    -28.2130749 -0.282131E+02  0.295E-02    2.81       0.0  T
   2    -28.2130751 -0.239640E-06  0.164E-02    2.81       1.5  T
   3    -28.2130751  0.202827E-07  0.403E-03    2.81       6.0  T
   4    -28.2130751 -0.342807E-07  0.230E-03    2.81      10.6  T
   5    -28.2130752 -0.312301E-07  0.103E-03    2.81      23.5  T
   6    -28.2130752 -0.809623E-08  0.312E-04    2.81      77.7  T
   7    -28.2130752 -0.689738E-09  0.174E-04    2.81     139.2  T
     SCC iter.                  ...        0 min,  0.495 sec
     gradient                   ...        0 min,  0.086 sec
 * total energy  :   -27.8891566 Eh     change       -0.7937832E-05 Eh
   gradient norm :     0.0007741 Eh/α   predicted    -0.5432764E-05 ( -31.56%)
   displ. norm   :     0.1178207 α      lambda       -0.4981128E-05
   maximum displ.:     0.0777157 α      in ANC's #1, #2, #6, ...

........................................................................
.............................. CYCLE   34 ..............................
........................................................................

 iter      E             dE          RMSdq      gap      omega  full diag
   1    -28.2123159 -0.282123E+02  0.349E-02    2.81       0.0  T
   2    -28.2123165 -0.572505E-06  0.203E-02    2.81       1.2  T
   3    -28.2123164  0.638379E-07  0.607E-03    2.81       4.0  T
   4    -28.2123165 -0.108865E-06  0.261E-03    2.81       9.3  T
   5    -28.2123166 -0.372976E-07  0.127E-03    2.81      19.1  T
   6    -28.2123166 -0.865400E-08  0.255E-04    2.81      95.2  T
   7    -28.2123166 -0.243325E-10  0.179E-04    2.81     135.4  T
     SCC iter.                  ...        0 min,  0.572 sec
     gradient                   ...        0 min,  0.076 sec
 * total energy  :   -27.8891555 Eh     change        0.1097995E-05 Eh
   gradient norm :     0.0019105 Eh/α   predicted    -0.2507358E-05 (-328.36%)
   displ. norm   :     0.0604375 α      lambda       -0.7498373E-05
   maximum displ.:     0.0414518 α      in ANC's #2, #1, #5, ...

........................................................................
.............................. CYCLE   35 ..............................
........................................................................

 iter      E             dE          RMSdq      gap      omega  full diag
   1    -28.2131051 -0.282131E+02  0.185E-02    2.81       0.0  T
   2    -28.2131052 -0.135060E-06  0.107E-02    2.81       2.3  T
   3    -28.2131051  0.137746E-06  0.387E-03    2.81       6.3  T
   4    -28.2131052 -0.169525E-06  0.118E-03    2.81      20.6  T
   5    -28.2131052 -0.846306E-08  0.422E-04    2.81      57.5  T
   6    -28.2131052 -0.235620E-09  0.283E-04    2.81      85.7  T
     SCC iter.                  ...        0 min,  0.304 sec
     gradient                   ...        0 min,  0.092 sec
 * total energy  :   -27.8891600 Eh     change       -0.4539437E-05 Eh
   gradient norm :     0.0004929 Eh/α   predicted    -0.3754189E-05 ( -17.30%)
   displ. norm   :     0.0173911 α      lambda       -0.6174797E-06
   maximum displ.:     0.0126393 α      in ANC's #1, #2, #5, ...

   *** GEOMETRY OPTIMIZATION CONVERGED AFTER 35 ITERATIONS ***

------------------------------------------------------------------------
 total energy gain   :        -0.0219505 Eh      -13.7742 kcal/mol
 total RMSD          :         0.9043328 a0        0.4786 Å
 total power (kW/mol):        -1.6466017 (step)   -2.3466 (real)
------------------------------------------------------------------------

 ANCopt (total)                0 d,  0 h,  0 min, 24.559 sec
 optimizer setup                ...        0 min,  0.000 sec (  0.002%)
 model hessian                  ...        0 min,  0.004 sec (  0.017%)
 ANC generation                 ...        0 min,  0.004 sec (  0.017%)
 coordinate transformation      ...        0 min,  0.001 sec (  0.003%)
 single point calculation       ...        0 min, 24.274 sec ( 98.836%)
 optimization log               ...        0 min,  0.023 sec (  0.092%)
 hessian update                 ...        0 min,  0.212 sec (  0.862%)
 rational function              ...        0 min,  0.026 sec (  0.104%)

================
 final structure:
================
17
 xtb: 6.7.1 (edcfbbe)
C           -2.41727233894104       -1.08894053052525       -0.44916084573439
C           -1.22519258174651       -0.20283280934736       -0.35434538261236
C           -1.24547445224383        1.12092332942266       -0.16886195356500
C           -0.05918751383426        1.91772689831963       -0.05442484184067
N            1.14086524406262        1.47076075900247       -0.13028063570556
N            1.39790289724991        0.21181027681383       -0.38533467586879
C            2.78562497299318       -0.18441889937603       -0.35528134200645
S            0.31019806563922       -1.17491752714276       -0.41427063787711
O            0.37628081968414       -1.85562494373152        0.87497599267962
H           -2.43190864376096       -1.59806293821939       -1.41371395388977
H           -2.36363174491387       -1.85366495725248        0.32633041501962
H           -3.34080377735918       -0.52641259413825       -0.32984251346403
H           -2.19455308482043        1.63566648218855       -0.08682498998784
H           -0.14299137990511        2.97754319919863        0.12691138047363
H            3.40190092289177        0.71053935413311       -0.31293530168577
H            3.02163246040615       -0.75540135228270       -1.25460152087697
H            2.98661013459821       -0.80469274706327        0.52166680694182

 Bond Distances (Angstroems)
 ---------------------------
C1-C2=1.4884         C1-H10=1.0908        C1-H11=1.0904        C1-H12=1.0879        C2-C1=1.4884         C2-C3=1.3368         
C2-S8=1.8182         C3-C2=1.3368         C3-C4=1.4336         C3-H13=1.0828        C4-C3=1.4336         C4-N5=1.2828         
C4-H14=1.0785        N5-C4=1.2828         N5-N6=1.3100         N6-N5=1.3100         N6-C7=1.4435         N6-S8=1.7627         
C7-N6=1.4435         C7-H15=1.0874        C7-H16=1.0911        C7-H17=1.0928        S8-C2=1.8182         S8-N6=1.7627         
S8-O9=1.4594         O9-S8=1.4594         H10-C1=1.0908        H11-C1=1.0904        H12-C1=1.0879        H13-C3=1.0828        
H14-C4=1.0785        H15-C7=1.0874        H16-C7=1.0911        H17-C7=1.0928        
 C  H  Rav=1.0877 sigma=0.0045  Rmin=1.0785  Rmax=1.0928     8
 C  C  Rav=1.4196 sigma=0.0626  Rmin=1.3368  Rmax=1.4884     3
 N  C  Rav=1.3632 sigma=0.0803  Rmin=1.2828  Rmax=1.4435     2
 N  N  Rav=1.3100 sigma=0.0000  Rmin=1.3100  Rmax=1.3100     1
 S  C  Rav=1.8182 sigma=0.0000  Rmin=1.8182  Rmax=1.8182     1
 S  N  Rav=1.7627 sigma=0.0000  Rmin=1.7627  Rmax=1.7627     1
 S  O  Rav=1.4594 sigma=0.0000  Rmin=1.4594  Rmax=1.4594     1

 selected bond angles (degree)
 --------------------
H10-C1-C2=110.18               H11-C1-C2=109.44               H11-C1-H10=107.59              H12-C1-C2=111.41               
H12-C1-H10=109.08              H12-C1-H11=109.05              C3-C2-C1=125.89                S8-C2-C1=110.85                
S8-C2-C3=123.15                C4-C3-C2=123.29                H13-C3-C2=119.64               H13-C3-C4=117.07               
N5-C4-C3=125.15                H14-C4-C3=119.69               H14-C4-N5=115.15               N6-N5-C4=122.00                
C7-N6-N5=116.64                S8-N6-N5=129.66                S8-N6-C7=112.19                H15-C7-N6=108.65               
H16-C7-N6=109.54               H16-C7-H15=109.89              H17-C7-N6=110.45               H17-C7-H15=109.37              
H17-C7-H16=108.94              N6-S8-C2= 95.74                O9-S8-C2=104.98                O9-S8-N6=108.94                

 selected dihedral angles (degree)
 ---------------------------------
C3-C2-C1-H10=120.19           C3-C2-C1-H11=238.30           C3-C2-C1-H12=358.98           S8-C2-C1-H10=296.41           
S8-C2-C1-H11= 54.52           S8-C2-C1-H12=175.19           C4-C3-C2-C1=178.49            C4-C3-C2-S8=  2.71            
H13-C3-C2-C1=359.22           H13-C3-C2-S8=183.44           N5-C4-C3-C2=  0.87            N5-C4-C3-H13=180.15           
H14-C4-C3-C2=182.00           H14-C4-C3-H13=  1.29          N6-N5-C4-C3=  3.11            N6-N5-C4-H14=182.02           
C7-N6-N5-C4=184.05            S8-N6-N5-C4=348.75            H15-C7-N6-N5=348.76           H15-C7-N6-S8=181.42           
H16-C7-N6-N5=228.71           H16-C7-N6-S8= 61.38           H17-C7-N6-N5=108.71           H17-C7-N6-S8=301.38           
N6-S8-C2-C1=176.50            N6-S8-C2-C3=352.84            O9-S8-C2-C1=287.88            O9-S8-C2-C3=104.22            
C2-S8-N6-N5= 11.85            C2-S8-N6-C7=177.10            O9-S8-N6-N5=263.85            O9-S8-N6-C7= 69.10            
           -------------------------------------------------
          |                Final Singlepoint                |
           -------------------------------------------------

          ...................................................
          :                      SETUP                      :
          :.................................................:
          :  # basis functions                  50          :
          :  # atomic orbitals                  49          :
          :  # shells                           27          :
          :  # electrons                        50          :
          :  max. iterations                   250          :
          :  Hamiltonian                  GFN2-xTB          :
          :  restarted?                      false          :
          :  GBSA solvation                  false          :
          :  PC potential                    false          :
          :  electronic temp.          300.0000000     K    :
          :  accuracy                    1.0000000          :
          :  -> integral cutoff          0.2500000E+02      :
          :  -> integral neglect         0.1000000E-07      :
          :  -> SCF convergence          0.1000000E-05 Eh   :
          :  -> wf. convergence          0.1000000E-03 e    :
          :  Broyden damping             0.4000000          :
          :  net charge                          0          :
          :  unpaired electrons                  0          :
          ...................................................

 iter      E             dE          RMSdq      gap      omega  full diag
   1    -28.2131052 -0.282131E+02  0.837E-05    2.81       0.0  T
   2    -28.2131052 -0.295231E-11  0.535E-05    2.81     453.0  T
   3    -28.2131052 -0.225953E-11  0.387E-05    2.81     627.3  T

   *** convergence criteria satisfied after 3 iterations ***

         #    Occupation            Energy/Eh            Energy/eV
      -------------------------------------------------------------
         1        2.0000           -0.7605697             -20.6962
       ...           ...                  ...                  ...
        19        2.0000           -0.4765044             -12.9663
        20        2.0000           -0.4675144             -12.7217
        21        2.0000           -0.4446110             -12.0985
        22        2.0000           -0.4344696             -11.8225
        23        2.0000           -0.3935236             -10.7083
        24        2.0000           -0.3821074             -10.3977
        25        2.0000           -0.3696409             -10.0584 (HOMO)
        26                         -0.2662548              -7.2452 (LUMO)
        27                         -0.2193320              -5.9683
        28                         -0.1774388              -4.8284
        29                         -0.1407001              -3.8286
        30                         -0.0637921              -1.7359
       ...                                ...                  ...
        49                          0.9352631              25.4498
      -------------------------------------------------------------
                  HL-Gap            0.1033861 Eh            2.8133 eV
             Fermi-level           -0.3179478 Eh           -8.6518 eV

 SCC (total)                   0 d,  0 h,  0 min,  0.620 sec
 SCC setup                      ...        0 min,  0.009 sec (  1.526%)
 Dispersion                     ...        0 min,  0.018 sec (  2.907%)
 classical contributions        ...        0 min,  0.006 sec (  0.937%)
 integral evaluation            ...        0 min,  0.022 sec (  3.498%)
 iterations                     ...        0 min,  0.442 sec ( 71.220%)
 molecular gradient             ...        0 min,  0.123 sec ( 19.847%)
 printout                       ...        0 min,  0.000 sec (  0.061%)

         :::::::::::::::::::::::::::::::::::::::::::::::::::::
         ::                     SUMMARY                     ::
         :::::::::::::::::::::::::::::::::::::::::::::::::::::
         :: total energy             -27.889160003652 Eh    ::
         :: gradient norm              0.000494875183 Eh/a0 ::
         :: HOMO-LUMO gap              2.813279010725 eV    ::
         ::.................................................::
         :: SCC energy               -28.213063696438 Eh    ::
         :: -> isotropic ES            0.043009931506 Eh    ::
         :: -> anisotropic ES          0.000506252266 Eh    ::
         :: -> anisotropic XC          0.016675355428 Eh    ::
         :: -> dispersion             -0.015132925985 Eh    ::
         :: repulsion energy           0.323903692786 Eh    ::
         :: add. restraining           0.000000000000 Eh    ::
         :: total charge               0.000000000000 e     ::
         :::::::::::::::::::::::::::::::::::::::::::::::::::::

           -------------------------------------------------
          |                Property Printout                |
           -------------------------------------------------

    * Orbital Energies and Occupations

         #    Occupation            Energy/Eh            Energy/eV
      -------------------------------------------------------------
         1        2.0000           -0.7605697             -20.6962
       ...           ...                  ...                  ...
        13        2.0000           -0.5095738             -13.8662
        14        2.0000           -0.5081370             -13.8271
        15        2.0000           -0.4951780             -13.4745
        16        2.0000           -0.4897872             -13.3278
        17        2.0000           -0.4857616             -13.2182
        18        2.0000           -0.4831000             -13.1458
        19        2.0000           -0.4765044             -12.9663
        20        2.0000           -0.4675144             -12.7217
        21        2.0000           -0.4446110             -12.0985
        22        2.0000           -0.4344696             -11.8225
        23        2.0000           -0.3935236             -10.7083
        24        2.0000           -0.3821074             -10.3977
        25        2.0000           -0.3696409             -10.0584 (HOMO)
        26                         -0.2662548              -7.2452 (LUMO)
        27                         -0.2193320              -5.9683
        28                         -0.1774388              -4.8284
        29                         -0.1407001              -3.8286
        30                         -0.0637921              -1.7359
        31                         -0.0248860              -0.6772
        32                          0.0492283               1.3396
        33                          0.0902416               2.4556
        34                          0.0995740               2.7095
        35                          0.1291269               3.5137
        36                          0.1404375               3.8215
       ...                                ...                  ...
        49                          0.9352631              25.4498
      -------------------------------------------------------------
                  HL-Gap            0.1033861 Eh            2.8133 eV
             Fermi-level           -0.3179478 Eh           -8.6518 eV

     #   Z          covCN         q      C6AA      α(0)
     1   6 C        3.802    -0.111    22.625     6.772
     2   6 C        2.937    -0.030    28.755     8.795
     3   6 C        2.921    -0.045    29.129     8.851
     4   6 C        2.862     0.019    27.588     8.610
     5   7 N        1.922    -0.145    24.919     7.402
     6   7 N        2.834    -0.065    22.498     7.045
     7   6 C        3.777    -0.053    21.559     6.615
     8  16 S        2.907     0.468   123.439    18.699
     9   8 O        0.860    -0.489    23.549     6.506
    10   1 H        0.924     0.052     2.300     2.372
    11   1 H        0.924     0.068     2.103     2.268
    12   1 H        0.925     0.052     2.295     2.369
    13   1 H        0.925     0.042     2.428     2.437
    14   1 H        0.926     0.043     2.406     2.425
    15   1 H        0.925     0.080     1.983     2.202
    16   1 H        0.924     0.053     2.279     2.361
    17   1 H        0.924     0.064     2.154     2.295

 Mol. C6AA /au·bohr⁶  :       3958.738108
 Mol. C8AA /au·bohr⁸  :     104141.675784
 Mol. α(0) /au        :         98.023043


Wiberg/Mayer (AO) data.
largest (>0.10) Wiberg bond orders for each atom

 ---------------------------------------------------------------------------
     #   Z sym  total        # sym  WBO       # sym  WBO       # sym  WBO
 ---------------------------------------------------------------------------
     1   6 C    3.995 --     2 C    1.035    12 H    0.979    10 H    0.965
                            11 H    0.963
     2   6 C    3.975 --     3 C    1.748     1 C    1.035     8 S    0.944
     3   6 C    3.992 --     2 C    1.748     4 C    1.157    13 H    0.955
     4   6 C    3.979 --     5 N    1.640     3 C    1.157    14 H    0.961
                             6 N    0.144
     5   7 N    3.118 --     4 C    1.640     6 N    1.221
     6   7 N    3.496 --     5 N    1.221     7 C    0.996     8 S    0.934
                             4 C    0.144
     7   6 C    3.968 --     6 N    0.996    15 H    0.977    16 H    0.976
                            17 H    0.973
     8  16 S    3.914 --     9 O    1.837     2 C    0.944     6 N    0.934
     9   8 O    2.052 --     8 S    1.837
    10   1 H    0.997 --     1 C    0.965
    11   1 H    0.995 --     1 C    0.963
    12   1 H    0.997 --     1 C    0.979
    13   1 H    0.998 --     3 C    0.955
    14   1 H    0.998 --     4 C    0.961
    15   1 H    0.993 --     7 C    0.977
    16   1 H    0.997 --     7 C    0.976
    17   1 H    0.996 --     7 C    0.973
 ---------------------------------------------------------------------------

Topologies differ in total number of bonds
Writing topology from bond orders to xtbtopo.mol

molecular dipole:
                 x           y           z       tot (Debye)
 q only:       -0.035       0.337      -1.164
   full:       -0.388       0.390      -0.939       2.766
molecular quadrupole (traceless):
                xx          xy          yy          xz          yz          zz
 q only:        7.960       0.205      -4.991      -1.358       5.906      -2.970
  q+dip:        8.079      -1.165      -5.064      -1.086       6.038      -3.015
   full:        8.327      -1.167      -5.884      -0.987       5.664      -2.444

           -------------------------------------------------
          |                Geometry Summary                 |
           -------------------------------------------------

      molecular mass/u    :      144.1948042
   center of mass at/Å    :        0.1698609      -0.1750758      -0.1771802
  moments of inertia/u·Å² :        0.2395934E+03   0.3350339E+03   0.5253504E+03
rotational constants/cm⁻¹ :        0.7035933E-01   0.5031619E-01   0.3208836E-01

 * 16 selected distances

     #   Z          #   Z                                           value/Å
     1   6 C        2   6 C                                       1.4883654
     2   6 C        3   6 C                                       1.3368418
     3   6 C        4   6 C                                       1.4336209
     4   6 C        5   7 N                                       1.2828327
     5   7 N        6   7 N                                       1.3099914
     6   7 N        7   6 C                                       1.4434936
     6   7 N        8  16 S                                       1.7626553 (max)
     8  16 S        9   8 O                                       1.4594132
     1   6 C       10   1 H                                       1.0907716
     1   6 C       11   1 H                                       1.0904438
     1   6 C       12   1 H                                       1.0879270
     3   6 C       13   1 H                                       1.0827932
     4   6 C       14   1 H                                       1.0784789 (min)
     7   6 C       15   1 H                                       1.0874464
     7   6 C       16   1 H                                       1.0910992
     7   6 C       17   1 H                                       1.0927822

 * 6 distinct bonds (by element types)

   Z      Z             #   av. dist./Å        max./Å        min./Å
   1 H    6 C           8     1.0877178     1.0927822     1.0784789
   6 C    6 C           3     1.4196094     1.4883654     1.3368418
   6 C    7 N           2     1.3631631     1.4434936     1.2828327
   7 N    7 N           1     1.3099914     1.3099914     1.3099914
   7 N   16 S           1     1.7626553     1.7626553     1.7626553
   8 O   16 S           1     1.4594132     1.4594132     1.4594132


optimized geometry written to: xtbopt.xyz


           -------------------------------------------------
          | TOTAL ENERGY              -27.889160003652 Eh   |
          | GRADIENT NORM               0.000494875183 Eh/α |
          | HOMO-LUMO GAP               2.813279010725 eV   |
           -------------------------------------------------

------------------------------------------------------------------------
 * finished run on 2026/01/15 at 10:08:32.150     
------------------------------------------------------------------------
 total:
 * wall-time:     0 d,  0 h,  0 min, 26.235 sec
 *  cpu-time:     0 d,  0 h,  2 min, 27.036 sec
 * ratio c/w:     5.604 speedup
 SCF:
 * wall-time:     0 d,  0 h,  0 min,  0.873 sec
 *  cpu-time:     0 d,  0 h,  0 min,  5.660 sec
 * ratio c/w:     6.481 speedup
 ANC optimizer:
 * wall-time:     0 d,  0 h,  0 min, 25.194 sec
 *  cpu-time:     0 d,  0 h,  2 min, 20.771 sec
 * ratio c/w:     5.587 speedup

