17
 energy: -27.889160003652 gnorm: 0.000494875183 xtb: 6.7.1 (edcfbbe)
C           -2.41727233894104       -1.08894053052525       -0.44916084573439
C           -1.22519258174651       -0.20283280934736       -0.35434538261236
C           -1.24547445224383        1.12092332942266       -0.16886195356500
C           -0.05918751383426        1.91772689831963       -0.05442484184067
N            1.14086524406262        1.47076075900247       -0.13028063570556
N            1.39790289724991        0.21181027681383       -0.38533467586879
C            2.78562497299318       -0.18441889937603       -0.35528134200645
S            0.31019806563922       -1.17491752714276       -0.41427063787711
O            0.37628081968414       -1.85562494373152        0.87497599267962
H           -2.43190864376096       -1.59806293821939       -1.41371395388977
H           -2.36363174491387       -1.85366495725248        0.32633041501962
H           -3.34080377735918       -0.52641259413825       -0.32984251346403
H           -2.19455308482043        1.63566648218855       -0.08682498998784
H           -0.14299137990511        2.97754319919863        0.12691138047363
H            3.40190092289177        0.71053935413311       -0.31293530168577
H            3.02163246040615       -0.75540135228270       -1.25460152087697
H            2.98661013459821       -0.80469274706327        0.52166680694182
