      -----------------------------------------------------------      
     |                   =====================                   |     
     |                           x T B                           |     
     |                   =====================                   |     
     |                         S. Grimme                         |     
     |          Mulliken Center for Theoretical Chemistry        |     
     |                    University of Bonn                     |     
      -----------------------------------------------------------      

   * xtb version 6.7.1 (edcfbbe) compiled by 'conda@c0858423619e' on 2025-09-04

   xtb is free software: you can redistribute it and/or modify it under
   the terms of the GNU Lesser General Public License as published by
   the Free Software Foundation, either version 3 of the License, or
   (at your option) any later version.
   
   xtb is distributed in the hope that it will be useful,
   but WITHOUT ANY WARRANTY; without even the implied warranty of
   MERCHANTABILITY or FITNESS FOR A PARTICULAR PURPOSE.  See the
   GNU Lesser General Public License for more details.
   
   Cite this work as:
   * C. Bannwarth, E. Caldeweyher, S. Ehlert, A. Hansen, P. Pracht,
     J. Seibert, S. Spicher, S. Grimme, WIREs Comput. Mol. Sci., 2020, 11,
     e01493. DOI: 10.1002/wcms.1493
   
   for GFN2-xTB:
   * C. Bannwarth, S. Ehlert and S. Grimme., J. Chem. Theory Comput., 2019,
     15, 1652-1671. DOI: 10.1021/acs.jctc.8b01176
   for GFN1-xTB:
   * S. Grimme, C. Bannwarth, P. Shushkov, J. Chem. Theory Comput., 2017,
     13, 1989-2009. DOI: 10.1021/acs.jctc.7b00118
   for GFN0-xTB:
   * P. Pracht, E. Caldeweyher, S. Ehlert, S. Grimme, ChemRxiv, 2019, preprint.
     DOI: 10.26434/chemrxiv.8326202.v1
   for GFN-FF:
   * S. Spicher and S. Grimme, Angew. Chem. Int. Ed., 2020, 59, 15665-15673.
     DOI: 10.1002/anie.202004239
   
   for ALPB and GBSA implicit solvation:
   * S. Ehlert, M. Stahn, S. Spicher, S. Grimme, J. Chem. Theory Comput.,
     2021, 17, 4250-4261. DOI: 10.1021/acs.jctc.1c00471
   
   for ddCOSMO and CPCM-X implicit solvation:
   * M. Stahn, S. Ehlert, S. Grimme, J. Phys. Chem. A,
     2023, XX, XXXX-XXXX. DOI: 10.1021/acs.jpca.3c04382
   
   for DFT-D4:
   * E. Caldeweyher, C. Bannwarth and S. Grimme, J. Chem. Phys., 2017,
     147, 034112. DOI: 10.1063/1.4993215
   * E. Caldeweyher, S. Ehlert, A. Hansen, H. Neugebauer, S. Spicher,
     C. Bannwarth and S. Grimme, J. Chem. Phys., 2019, 150, 154122.
     DOI: 10.1063/1.5090222
   * E. Caldeweyher, J.-M. Mewes, S. Ehlert and S. Grimme, Phys. Chem. Chem. Phys.
     2020, 22, 8499-8512. DOI: 10.1039/D0CP00502A
   
   for sTDA-xTB:
   * S. Grimme and C. Bannwarth, J. Chem. Phys., 2016, 145, 054103.
     DOI: 10.1063/1.4959605
   
   in the mass-spec context:
   * V. Asgeirsson, C. Bauer and S. Grimme, Chem. Sci., 2017, 8, 4879.
     DOI: 10.1039/c7sc00601b
   * J. Koopman and S. Grimme, ACS Omega 2019, 4, 12, 15120-15133.
     DOI: 10.1021/acsomega.9b02011
   
   for metadynamics refer to:
   * S. Grimme, J. Chem. Theory Comput., 2019, 155, 2847-2862
     DOI: 10.1021/acs.jctc.9b00143
   
   for SPH calculations refer to:
   * S. Spicher and S. Grimme, J. Chem. Theory Comput., 2021, 17, 1701-1714
     DOI: 10.1021/acs.jctc.0c01306
   
   for ONIOM refer to:
   * C. Plett, A. Katbashev, S. Ehlert, S. Grimme, M. Bursch,
     Phys. Chem. Chem. Phys., 2023, 25, 17860-17868. DOI: 10.1039/D3CP02178E
   
   for DIPRO refer to:
   * J. Kohn, N. Gildemeister, S. Grimme, D. Fazzi, A. Hansen,
     J. Chem. Phys., 2023, just accepted.
   
   for PTB refer to:
   * S. Grimme, M. Mueller, A. Hansen, J. Chem. Phys., 2023, 158, 124111.
     DOI: 10.1063/5.0137838
   
   with help from (in alphabetical order)
   P. Atkinson, C. Bannwarth, F. Bohle, G. Brandenburg, E. Caldeweyher
   M. Checinski, S. Dohm, S. Ehlert, S. Ehrlich, I. Gerasimov, C. Hölzer
   A. Katbashev, J. Kohn, J. Koopman, C. Lavigne, S. Lehtola, F. März, M. Müller,
   F. Musil, H. Neugebauer, J. Pisarek, C. Plett, P. Pracht, F. Pultar,
   J. Seibert, P. Shushkov, S. Spicher, M. Stahn, M. Steiner, T. Strunk,
   J. Stückrath, T. Rose, and J. Unsleber
   
 * started run on 2026/01/15 at 10:26:45.692     
   ID    Z sym.   atoms
    1    6 C      1-4, 7
    2    7 N      5, 6
    3    1 H      8-15

           -------------------------------------------------
          |                Calculation Setup                |
           -------------------------------------------------

          program call               : /h/28/cicsy/miniforge3/envs/elagente/bin/xtb product_1-5-dimethylpyrazole.xyz --opt --gfn 2 -P 4 --chrg 0
          coordinate file            : product_1-5-dimethylpyrazole.xyz
          omp threads                :                     4


           -------------------------------------------------
          |                 G F N 2 - x T B                 |
           -------------------------------------------------

        Reference                      10.1021/acs.jctc.8b01176
      * Hamiltonian:
        H0-scaling (s, p, d)           1.850000    2.230000    2.230000
        zeta-weighting                 0.500000
      * Dispersion:
        s8                             2.700000
        a1                             0.520000
        a2                             5.000000
        s9                             5.000000
      * Repulsion:
        kExp                           1.500000    1.000000
        rExp                           1.000000
      * Coulomb:
        alpha                          2.000000
        third order                    shell-resolved
        anisotropic                    true
        a3                             3.000000
        a5                             4.000000
        cn-shift                       1.200000
        cn-exp                         4.000000
        max-rad                        5.000000


          ...................................................
          :                      SETUP                      :
          :.................................................:
          :  # basis functions                  36          :
          :  # atomic orbitals                  36          :
          :  # shells                           22          :
          :  # electrons                        38          :
          :  max. iterations                   250          :
          :  Hamiltonian                  GFN2-xTB          :
          :  restarted?                      false          :
          :  GBSA solvation                  false          :
          :  PC potential                    false          :
          :  electronic temp.          300.0000000     K    :
          :  accuracy                    1.0000000          :
          :  -> integral cutoff          0.2500000E+02      :
          :  -> integral neglect         0.1000000E-07      :
          :  -> SCF convergence          0.1000000E-05 Eh   :
          :  -> wf. convergence          0.1000000E-03 e    :
          :  Broyden damping             0.4000000          :
          :  net charge                          0          :
          :  unpaired electrons                  0          :
          ...................................................

 iter      E             dE          RMSdq      gap      omega  full diag
   1    -20.8445255 -0.208445E+02  0.315E+00    5.23       0.0  T
   2    -20.8922681 -0.477426E-01  0.244E+00    4.81       1.0  T
   3    -20.9011201 -0.885197E-02  0.131E+00    4.87       1.0  T
   4    -20.9012902 -0.170052E-03  0.382E-01    4.82       1.0  T
   5    -20.9021435 -0.853321E-03  0.882E-02    4.79       1.0  T
   6    -20.9021582 -0.146829E-04  0.408E-02    4.77       1.0  T
   7    -20.9021662 -0.807295E-05  0.212E-02    4.78       1.2  T
   8    -20.9021667 -0.516824E-06  0.508E-03    4.78       5.1  T
   9    -20.9021670 -0.227256E-06  0.118E-03    4.78      21.9  T
  10    -20.9021670 -0.472942E-08  0.522E-04    4.78      49.4  T
  11    -20.9021670 -0.137074E-09  0.183E-04    4.78     141.0  T

   *** convergence criteria satisfied after 11 iterations ***

         #    Occupation            Energy/Eh            Energy/eV
      -------------------------------------------------------------
         1        2.0000           -0.6809947             -18.5308
       ...           ...                  ...                  ...
        13        2.0000           -0.4799512             -13.0601
        14        2.0000           -0.4741710             -12.9028
        15        2.0000           -0.4610163             -12.5449
        16        2.0000           -0.4391849             -11.9508
        17        2.0000           -0.3911359             -10.6434
        18        2.0000           -0.3777070             -10.2779
        19        2.0000           -0.3749823             -10.2038 (HOMO)
        20                         -0.1994171              -5.4264 (LUMO)
        21                         -0.1437765              -3.9124
        22                         -0.0116271              -0.3164
        23                          0.0870899               2.3698
        24                          0.1038496               2.8259
       ...                                ...                  ...
        36                          0.6705226              18.2458
      -------------------------------------------------------------
                  HL-Gap            0.1755652 Eh            4.7774 eV
             Fermi-level           -0.2871997 Eh           -7.8151 eV

 SCC (total)                   0 d,  0 h,  0 min,  1.278 sec
 SCC setup                      ...        0 min,  0.009 sec (  0.743%)
 Dispersion                     ...        0 min,  0.023 sec (  1.830%)
 classical contributions        ...        0 min,  0.021 sec (  1.666%)
 integral evaluation            ...        0 min,  0.046 sec (  3.613%)
 iterations                     ...        0 min,  1.036 sec ( 81.035%)
 molecular gradient             ...        0 min,  0.142 sec ( 11.083%)
 printout                       ...        0 min,  0.000 sec (  0.028%)

         :::::::::::::::::::::::::::::::::::::::::::::::::::::
         ::                     SUMMARY                     ::
         :::::::::::::::::::::::::::::::::::::::::::::::::::::
         :: total energy             -20.618525593823 Eh    ::
         :: gradient norm              0.058448105088 Eh/a0 ::
         :: HOMO-LUMO gap              4.777372408786 eV    ::
         ::.................................................::
         :: SCC energy               -20.902143059252 Eh    ::
         :: -> isotropic ES            0.011661359561 Eh    ::
         :: -> anisotropic ES          0.003509309801 Eh    ::
         :: -> anisotropic XC          0.018214233206 Eh    ::
         :: -> dispersion             -0.010062168176 Eh    ::
         :: repulsion energy           0.283617465429 Eh    ::
         :: add. restraining           0.000000000000 Eh    ::
         :: total charge               0.000000000000 e     ::
         :::::::::::::::::::::::::::::::::::::::::::::::::::::

      ----------------------------------------------------------- 
     |                   =====================                   |
     |                        A N C O P T                        |
     |                   =====================                   |
     |               Approximate Normal Coordinate               |
     |                Rational Function Optimizer                |
      ----------------------------------------------------------- 
      ----------------------------------------------------------- 
     |                   =====================                   |
     |                        A N C O P T                        |
     |                   =====================                   |
     |               Approximate Normal Coordinate               |
     |                Rational Function Optimizer                |
      ----------------------------------------------------------- 

          ...................................................
          :                      SETUP                      :
          :.................................................:
          :   optimization level            normal          :
          :   max. optcycles                   200          :
          :   ANC micro-cycles                  20          :
          :   degrees of freedom                39          :
          :.................................................:
          :   RF solver                   davidson          :
          :   write xtbopt.log                true          :
          :   linear?                        false          :
          :   energy convergence         0.5000000E-05 Eh   :
          :   grad. convergence          0.1000000E-02 Eh/α :
          :   maxmium RF displ.          1.0000000          :
          :   Hlow (freq-cutoff)         0.1000000E-01      :
          :   Hmax (freq-cutoff)         5.0000000          :
          :   S6 in model hess.         20.0000000          :
          ...................................................

generating ANC from exact Hessian ...
Using Lindh-Hessian (1995)
 Shifting diagonal of input Hessian by    3.8738205584813367E-003
 Lowest  eigenvalues of input Hessian
    0.000000    0.000000    0.000000    0.000000    0.000000    0.000000
    0.010000    0.012505    0.015188    0.016309    0.018025    0.034416
    0.046621    0.051007    0.059918    0.060599    0.073011    0.089268
 Highest eigenvalues
    1.192977    1.555436    1.842355    1.855584    2.025205    2.078433


........................................................................
.............................. CYCLE    1 ..............................
........................................................................

 iter      E             dE          RMSdq      gap      omega  full diag
   1    -20.9021670 -0.209022E+02  0.436E-05    4.78       0.0  T
   2    -20.9021670 -0.160583E-11  0.246E-05    4.78    1048.6  T
   3    -20.9021670 -0.142109E-13  0.884E-06    4.78    2920.6  T
     SCC iter.                  ...        0 min,  0.288 sec
     gradient                   ...        0 min,  0.108 sec
 * total energy  :   -20.6185256 Eh     change       -0.1475478E-09 Eh
   gradient norm :     0.0584459 Eh/α   predicted     0.0000000E+00 (-100.00%)
   displ. norm   :     0.2636569 α      lambda       -0.8684825E-02
   maximum displ.:     0.1443308 α      in ANC's #6, #8, #10, ...

........................................................................
.............................. CYCLE    2 ..............................
........................................................................

 iter      E             dE          RMSdq      gap      omega  full diag
   1    -20.9242317 -0.209242E+02  0.326E-01    4.86       0.0  T
   2    -20.9243328 -0.101058E-03  0.188E-01    4.90       1.0  T
   3    -20.9243238  0.900691E-05  0.596E-02    4.88       1.0  T
   4    -20.9243474 -0.236730E-04  0.139E-02    4.89       1.9  T
   5    -20.9243485 -0.103553E-05  0.631E-03    4.89       4.1  T
   6    -20.9243485  0.137274E-07  0.193E-03    4.89      13.4  T
   7    -20.9243485 -0.403975E-07  0.520E-04    4.89      49.6  T
   8    -20.9243485 -0.115850E-09  0.212E-04    4.89     121.6  T
     SCC iter.                  ...        0 min,  0.579 sec
     gradient                   ...        0 min,  0.128 sec
 * total energy  :   -20.6240620 Eh     change       -0.5536455E-02 Eh
   gradient norm :     0.0168695 Eh/α   predicted    -0.4644269E-02 ( -16.11%)
   displ. norm   :     0.1537031 α      lambda       -0.1204004E-02
   maximum displ.:     0.1169187 α      in ANC's #6, #10, #3, ...

........................................................................
.............................. CYCLE    3 ..............................
........................................................................

 iter      E             dE          RMSdq      gap      omega  full diag
   1    -20.9305854 -0.209306E+02  0.126E-01    4.92       0.0  T
   2    -20.9306005 -0.150605E-04  0.745E-02    4.94       1.0  T
   3    -20.9305986  0.183764E-05  0.253E-02    4.94       1.0  T
   4    -20.9306028 -0.420849E-05  0.561E-03    4.94       4.6  T
   5    -20.9306030 -0.175212E-06  0.228E-03    4.94      11.3  T
   6    -20.9306030  0.594454E-09  0.759E-04    4.94      34.0  T
   7    -20.9306030 -0.420687E-08  0.191E-04    4.94     135.2  T
     SCC iter.                  ...        0 min,  0.291 sec
     gradient                   ...        0 min,  0.102 sec
 * total energy  :   -20.6247444 Eh     change       -0.6823715E-03 Eh
   gradient norm :     0.0054805 Eh/α   predicted    -0.6162240E-03 (  -9.69%)
   displ. norm   :     0.0710984 α      lambda       -0.1369172E-03
   maximum displ.:     0.0571317 α      in ANC's #6, #3, #1, ...

........................................................................
.............................. CYCLE    4 ..............................
........................................................................

 iter      E             dE          RMSdq      gap      omega  full diag
   1    -20.9301953 -0.209302E+02  0.358E-02    4.94       0.0  T
   2    -20.9301959 -0.592195E-06  0.200E-02    4.94       1.3  T
   3    -20.9301959  0.729948E-07  0.558E-03    4.94       4.6  T
   4    -20.9301960 -0.172984E-06  0.139E-03    4.94      18.5  T
   5    -20.9301960 -0.820793E-08  0.614E-04    4.94      42.1  T
   6    -20.9301961 -0.179341E-09  0.154E-04    4.94     168.0  T
     SCC iter.                  ...        0 min,  0.476 sec
     gradient                   ...        0 min,  0.115 sec
 * total energy  :   -20.6248409 Eh     change       -0.9649743E-04 Eh
   gradient norm :     0.0039156 Eh/α   predicted    -0.6880663E-04 ( -28.70%)
   displ. norm   :     0.0580509 α      lambda       -0.5726708E-04
   maximum displ.:     0.0370546 α      in ANC's #6, #1, #3, ...

........................................................................
.............................. CYCLE    5 ..............................
........................................................................

 iter      E             dE          RMSdq      gap      omega  full diag
   1    -20.9296358 -0.209296E+02  0.280E-02    4.94       0.0  T
   2    -20.9296366 -0.775334E-06  0.152E-02    4.93       1.7  T
   3    -20.9296365  0.651946E-07  0.654E-03    4.94       3.9  T
   4    -20.9296368 -0.260475E-06  0.108E-03    4.94      23.8  T
   5    -20.9296368 -0.704595E-09  0.468E-04    4.94      55.2  T
   6    -20.9296368 -0.106283E-09  0.895E-05    4.94     288.5  T
     SCC iter.                  ...        0 min,  0.389 sec
     gradient                   ...        0 min,  0.100 sec
 * total energy  :   -20.6248725 Eh     change       -0.3160213E-04 Eh
   gradient norm :     0.0010829 Eh/α   predicted    -0.2873074E-04 (  -9.09%)
   displ. norm   :     0.0282119 α      lambda       -0.4617648E-05
   maximum displ.:     0.0214107 α      in ANC's #1, #4, #2, ...

........................................................................
.............................. CYCLE    6 ..............................
........................................................................

 iter      E             dE          RMSdq      gap      omega  full diag
   1    -20.9297459 -0.209297E+02  0.922E-03    4.93       0.0  T
   2    -20.9297460 -0.967258E-07  0.553E-03    4.93       4.7  T
   3    -20.9297460  0.856917E-08  0.244E-03    4.93      10.6  T
   4    -20.9297461 -0.343470E-07  0.290E-04    4.93      89.1  T
   5    -20.9297461 -0.142016E-09  0.153E-04    4.93     168.6  T
     SCC iter.                  ...        0 min,  0.371 sec
     gradient                   ...        0 min,  0.072 sec
 * total energy  :   -20.6248777 Eh     change       -0.5218935E-05 Eh
   gradient norm :     0.0006509 Eh/α   predicted    -0.2308242E-05 ( -55.77%)
   displ. norm   :     0.0518086 α      lambda       -0.6484282E-05
   maximum displ.:     0.0355381 α      in ANC's #1, #4, #2, ...

........................................................................
.............................. CYCLE    7 ..............................
........................................................................

 iter      E             dE          RMSdq      gap      omega  full diag
   1    -20.9298957 -0.209299E+02  0.149E-02    4.93       0.0  T
   2    -20.9298957 -0.348334E-07  0.895E-03    4.93       2.9  T
   3    -20.9298957  0.340498E-07  0.203E-03    4.93      12.7  T
   4    -20.9298957 -0.453379E-07  0.311E-04    4.93      82.9  T
   5    -20.9298957 -0.157748E-09  0.155E-04    4.93     166.3  T
     SCC iter.                  ...        0 min,  0.432 sec
     gradient                   ...        0 min,  0.103 sec
 * total energy  :   -20.6248859 Eh     change       -0.8137132E-05 Eh
   gradient norm :     0.0013876 Eh/α   predicted    -0.3246223E-05 ( -60.11%)
   displ. norm   :     0.1077604 α      lambda       -0.1110867E-04
   maximum displ.:     0.0767477 α      in ANC's #1, #4, #2, ...

........................................................................
.............................. CYCLE    8 ..............................
........................................................................

 iter      E             dE          RMSdq      gap      omega  full diag
   1    -20.9297135 -0.209297E+02  0.294E-02    4.93       0.0  T
   2    -20.9297136 -0.485253E-07  0.176E-02    4.93       1.5  T
   3    -20.9297136  0.865916E-08  0.169E-03    4.93      15.3  T
   4    -20.9297136 -0.260327E-07  0.589E-04    4.93      43.8  T
   5    -20.9297136 -0.685997E-09  0.199E-04    4.93     129.7  T
     SCC iter.                  ...        0 min,  0.517 sec
     gradient                   ...        0 min,  0.182 sec
 * total energy  :   -20.6248986 Eh     change       -0.1276704E-04 Eh
   gradient norm :     0.0016120 Eh/α   predicted    -0.5581803E-05 ( -56.28%)
   displ. norm   :     0.0897717 α      lambda       -0.7492924E-05
   maximum displ.:     0.0663325 α      in ANC's #1, #4, #2, ...

........................................................................
.............................. CYCLE    9 ..............................
........................................................................

 iter      E             dE          RMSdq      gap      omega  full diag
   1    -20.9297285 -0.209297E+02  0.242E-02    4.93       0.0  T
   2    -20.9297285 -0.493864E-07  0.146E-02    4.93       1.8  T
   3    -20.9297285  0.387073E-07  0.199E-03    4.93      13.0  T
   4    -20.9297286 -0.545576E-07  0.371E-04    4.93      69.7  T
   5    -20.9297286 -0.648441E-10  0.115E-04    4.93     225.0  T
     SCC iter.                  ...        0 min,  1.929 sec
     gradient                   ...        0 min,  0.119 sec
 * total energy  :   -20.6249065 Eh     change       -0.7883347E-05 Eh
   gradient norm :     0.0008190 Eh/α   predicted    -0.3760613E-05 ( -52.30%)
   displ. norm   :     0.0518702 α      lambda       -0.3223115E-05
   maximum displ.:     0.0422949 α      in ANC's #1, #4, #5, ...

........................................................................
.............................. CYCLE   10 ..............................
........................................................................

 iter      E             dE          RMSdq      gap      omega  full diag
   1    -20.9298423 -0.209298E+02  0.143E-02    4.94       0.0  T
   2    -20.9298423 -0.279295E-07  0.857E-03    4.94       3.0  T
   3    -20.9298423  0.227351E-07  0.169E-03    4.94      15.3  T
   4    -20.9298423 -0.318493E-07  0.322E-04    4.94      80.2  T
   5    -20.9298423 -0.879190E-10  0.153E-04    4.94     168.6  T
     SCC iter.                  ...        0 min,  2.375 sec
     gradient                   ...        0 min,  0.001 sec
 * total energy  :   -20.6249094 Eh     change       -0.2864681E-05 Eh
   gradient norm :     0.0004064 Eh/α   predicted    -0.1614384E-05 ( -43.65%)
   displ. norm   :     0.0274748 α      lambda       -0.1353667E-05
   maximum displ.:     0.0229430 α      in ANC's #1, #4, #5, ...

   *** GEOMETRY OPTIMIZATION CONVERGED AFTER 10 ITERATIONS ***

------------------------------------------------------------------------
 total energy gain   :        -0.0063838 Eh       -4.0059 kcal/mol
 total RMSD          :         0.1630784 a0        0.0863 Å
 total power (kW/mol):        -1.6760658 (step)   -1.7705 (real)
------------------------------------------------------------------------

 ANCopt (total)                0 d,  0 h,  0 min,  9.467 sec
 optimizer setup                ...        0 min,  0.000 sec (  0.004%)
 model hessian                  ...        0 min,  0.003 sec (  0.028%)
 ANC generation                 ...        0 min,  0.000 sec (  0.004%)
 coordinate transformation      ...        0 min,  0.000 sec (  0.001%)
 single point calculation       ...        0 min,  9.344 sec ( 98.706%)
 optimization log               ...        0 min,  0.010 sec (  0.101%)
 hessian update                 ...        0 min,  0.085 sec (  0.897%)
 rational function              ...        0 min,  0.013 sec (  0.141%)

================
 final structure:
================
15
 xtb: 6.7.1 (edcfbbe)
C           -0.64395245831280       -1.66911177600441        0.09734420427244
C           -0.58500628643201       -0.18736284211287        0.02509962646855
C           -1.58209410677394        0.76618731314339        0.00934886070542
C           -0.90654736343988        1.99003972542354       -0.06570936593669
N            0.39904968577976        1.80664322113184       -0.09195475444452
N            0.58549720749390        0.48950158149341       -0.03725329237509
C            1.90843594054809       -0.05917557501434       -0.05430723461845
H           -1.67987658638526       -1.99439739495971        0.13156269355748
H           -0.13381739297009       -2.03349383232773        0.98983865498194
H           -0.16426053614318       -2.11940022467729       -0.77242018984359
H           -2.63967338743749        0.60257337732635        0.04562739671023
H           -1.31507566857882        2.98029623624928       -0.09937036390414
H            2.09552327350934       -0.64912794077264        0.84575739682565
H            2.05364172286218       -0.69600290337522       -0.93012883959312
H            2.60815695628022        0.77283103447640       -0.09343379280612

 Bond Distances (Angstroems)
 ---------------------------
C1-C2=1.4847         C1-H8=1.0863         C1-H9=1.0907         C1-H10=1.0906        C2-C1=1.4847         C2-C3=1.3797         
C2-N6=1.3536         C3-C2=1.3797         C3-C4=1.3999         C3-H11=1.0708        C4-C3=1.3999         C4-N5=1.3187         
C4-H12=1.0717        N5-C4=1.3187         N5-N6=1.3314         N6-C2=1.3536         N6-N5=1.3314         N6-C7=1.4323         
C7-N6=1.4323         C7-H13=1.0923        C7-H14=1.0926        C7-H15=1.0878        H8-C1=1.0863         H9-C1=1.0907         
H10-C1=1.0906        H11-C3=1.0708        H12-C4=1.0717        H13-C7=1.0923        H14-C7=1.0926        H15-C7=1.0878        
 C  H  Rav=1.0854 sigma=0.0084  Rmin=1.0708  Rmax=1.0926     8
 C  C  Rav=1.4215 sigma=0.0455  Rmin=1.3797  Rmax=1.4847     3
 N  C  Rav=1.3682 sigma=0.0475  Rmin=1.3187  Rmax=1.4323     3
 N  N  Rav=1.3314 sigma=0.0000  Rmin=1.3314  Rmax=1.3314     1

 selected bond angles (degree)
 --------------------
H8-C1-C2=109.77                H9-C1-C2=110.77                H9-C1-H8=108.68                H10-C1-C2=110.84               
H10-C1-H8=108.72               H10-C1-H9=108.00               C3-C2-C1=131.42                N6-C2-C1=122.39                
N6-C2-C3=106.19                C4-C3-C2=104.84                H11-C3-C2=127.43               H11-C3-C4=127.73               
N5-C4-C3=110.93                H12-C4-C3=128.72               H12-C4-N5=120.35               N6-N5-C4=105.99                
N5-N6-C2=112.06                C7-N6-C2=127.42                C7-N6-N5=120.52                H13-C7-N6=110.81               
H14-C7-N6=110.83               H14-C7-H13=108.84              H15-C7-N6=107.55               H15-C7-H13=109.42              
H15-C7-H14=109.36              

 selected dihedral angles (degree)
 ---------------------------------
C3-C2-C1-H8=  0.67            C3-C2-C1-H9=240.66            C3-C2-C1-H10=120.79           N6-C2-C1-H8=180.44            
N6-C2-C1-H9= 60.42            N6-C2-C1-H10=300.56           C4-C3-C2-C1=179.86            C4-C3-C2-N6=  0.07            
H11-C3-C2-C1=359.80           H11-C3-C2-N6=180.01           N5-C4-C3-C2=359.91            N5-C4-C3-H11=179.97           
H12-C4-C3-C2=180.02           H12-C4-C3-H11=  0.08          N6-N5-C4-C3=  0.08            N6-N5-C4-H12=179.98           
N5-N6-C2-C1=180.16            N5-N6-C2-C3=359.98            C7-N6-C2-C1=  0.47            C7-N6-C2-C3=180.29            
C2-N6-N5-C4=359.97            C7-N6-N5-C4=179.68            H13-C7-N6-C2=300.42           H13-C7-N6-N5=120.75           
H14-C7-N6-C2= 61.36           H14-C7-N6-N5=241.70           H15-C7-N6-C2=180.86           H15-C7-N6-N5=  1.19           
           -------------------------------------------------
          |                Final Singlepoint                |
           -------------------------------------------------

          ...................................................
          :                      SETUP                      :
          :.................................................:
          :  # basis functions                  36          :
          :  # atomic orbitals                  36          :
          :  # shells                           22          :
          :  # electrons                        38          :
          :  max. iterations                   250          :
          :  Hamiltonian                  GFN2-xTB          :
          :  restarted?                      false          :
          :  GBSA solvation                  false          :
          :  PC potential                    false          :
          :  electronic temp.          300.0000000     K    :
          :  accuracy                    1.0000000          :
          :  -> integral cutoff          0.2500000E+02      :
          :  -> integral neglect         0.1000000E-07      :
          :  -> SCF convergence          0.1000000E-05 Eh   :
          :  -> wf. convergence          0.1000000E-03 e    :
          :  Broyden damping             0.4000000          :
          :  net charge                          0          :
          :  unpaired electrons                  0          :
          ...................................................

 iter      E             dE          RMSdq      gap      omega  full diag
   1    -20.9298423 -0.209298E+02  0.343E-05    4.94       0.0  T
   2    -20.9298423 -0.657607E-11  0.208E-05    4.94    1243.9  T
   3    -20.9298423 -0.352074E-11  0.990E-06    4.94    2608.4  T

   *** convergence criteria satisfied after 3 iterations ***

         #    Occupation            Energy/Eh            Energy/eV
      -------------------------------------------------------------
         1        2.0000           -0.6804096             -18.5149
       ...           ...                  ...                  ...
        13        2.0000           -0.4801974             -13.0668
        14        2.0000           -0.4722354             -12.8502
        15        2.0000           -0.4600257             -12.5179
        16        2.0000           -0.4444450             -12.0940
        17        2.0000           -0.3870317             -10.5317
        18        2.0000           -0.3821442             -10.3987
        19        2.0000           -0.3793000             -10.3213 (HOMO)
        20                         -0.1979155              -5.3856 (LUMO)
        21                         -0.1448856              -3.9425
        22                          0.0134427               0.3658
        23                          0.1084969               2.9524
        24                          0.1199371               3.2637
       ...                                ...                  ...
        36                          0.6772539              18.4290
      -------------------------------------------------------------
                  HL-Gap            0.1813845 Eh            4.9357 eV
             Fermi-level           -0.2886077 Eh           -7.8534 eV

 SCC (total)                   0 d,  0 h,  0 min,  1.491 sec
 SCC setup                      ...        0 min,  0.000 sec (  0.006%)
 Dispersion                     ...        0 min,  0.000 sec (  0.004%)
 classical contributions        ...        0 min,  0.000 sec (  0.001%)
 integral evaluation            ...        0 min,  0.000 sec (  0.027%)
 iterations                     ...        0 min,  1.489 sec ( 99.882%)
 molecular gradient             ...        0 min,  0.001 sec (  0.071%)
 printout                       ...        0 min,  0.000 sec (  0.007%)

         :::::::::::::::::::::::::::::::::::::::::::::::::::::
         ::                     SUMMARY                     ::
         :::::::::::::::::::::::::::::::::::::::::::::::::::::
         :: total energy             -20.624909391419 Eh    ::
         :: gradient norm              0.000406178280 Eh/a0 ::
         :: HOMO-LUMO gap              4.935723422912 eV    ::
         ::.................................................::
         :: SCC energy               -20.929818951368 Eh    ::
         :: -> isotropic ES            0.011359093814 Eh    ::
         :: -> anisotropic ES          0.002608778672 Eh    ::
         :: -> anisotropic XC          0.016842066717 Eh    ::
         :: -> dispersion             -0.010116218641 Eh    ::
         :: repulsion energy           0.304909559949 Eh    ::
         :: add. restraining           0.000000000000 Eh    ::
         :: total charge              -0.000000000000 e     ::
         :::::::::::::::::::::::::::::::::::::::::::::::::::::

           -------------------------------------------------
          |                Property Printout                |
           -------------------------------------------------

    * Orbital Energies and Occupations

         #    Occupation            Energy/Eh            Energy/eV
      -------------------------------------------------------------
         1        2.0000           -0.6804096             -18.5149
       ...           ...                  ...                  ...
         7        2.0000           -0.5507832             -14.9876
         8        2.0000           -0.5503104             -14.9747
         9        2.0000           -0.5249494             -14.2846
        10        2.0000           -0.4961152             -13.5000
        11        2.0000           -0.4957281             -13.4894
        12        2.0000           -0.4860486             -13.2261
        13        2.0000           -0.4801974             -13.0668
        14        2.0000           -0.4722354             -12.8502
        15        2.0000           -0.4600257             -12.5179
        16        2.0000           -0.4444450             -12.0940
        17        2.0000           -0.3870317             -10.5317
        18        2.0000           -0.3821442             -10.3987
        19        2.0000           -0.3793000             -10.3213 (HOMO)
        20                         -0.1979155              -5.3856 (LUMO)
        21                         -0.1448856              -3.9425
        22                          0.0134427               0.3658
        23                          0.1084969               2.9524
        24                          0.1199371               3.2637
        25                          0.1366928               3.7196
        26                          0.1603825               4.3642
        27                          0.1801888               4.9032
        28                          0.1809775               4.9246
        29                          0.1945651               5.2944
        30                          0.2252398               6.1291
       ...                                ...                  ...
        36                          0.6772539              18.4290
      -------------------------------------------------------------
                  HL-Gap            0.1813845 Eh            4.9357 eV
             Fermi-level           -0.2886077 Eh           -7.8534 eV

     #   Z          covCN         q      C6AA      α(0)
     1   6 C        3.754    -0.108    22.625     6.783
     2   6 C        3.068     0.024    27.400     8.583
     3   6 C        3.025    -0.087    30.147     9.006
     4   6 C        3.117     0.023    27.339     8.564
     5   7 N        2.004    -0.246    27.203     7.736
     6   7 N        3.049     0.076    19.921     6.629
     7   6 C        3.692    -0.059    21.834     6.686
     8   1 H        0.925     0.051     2.310     2.377
     9   1 H        0.924     0.045     2.385     2.415
    10   1 H        0.924     0.045     2.385     2.415
    11   1 H        0.926     0.019     2.751     2.594
    12   1 H        0.926     0.024     2.668     2.554
    13   1 H        0.924     0.056     2.244     2.343
    14   1 H        0.924     0.056     2.246     2.344
    15   1 H        0.925     0.082     1.958     2.188

 Mol. C6AA /au·bohr⁶  :       2236.496110
 Mol. C8AA /au·bohr⁸  :      50360.360137
 Mol. α(0) /au        :         73.217057


Wiberg/Mayer (AO) data.
largest (>0.10) Wiberg bond orders for each atom

 ---------------------------------------------------------------------------
     #   Z sym  total        # sym  WBO       # sym  WBO       # sym  WBO
 ---------------------------------------------------------------------------
     1   6 C    3.997 --     2 C    1.030     8 H    0.984    10 H    0.971
                             9 H    0.971
     2   6 C    3.959 --     3 C    1.475     6 N    1.257     1 C    1.030
                             5 N    0.147
     3   6 C    3.976 --     2 C    1.475     4 C    1.370    11 H    0.975
     4   6 C    3.979 --     5 N    1.508     3 C    1.370    12 H    0.970
     5   7 N    2.961 --     4 C    1.508     6 N    1.199     2 C    0.147
     6   7 N    3.663 --     2 C    1.257     5 N    1.199     7 C    1.007
     7   6 C    3.972 --     6 N    1.007    15 H    0.979    13 H    0.973
                            14 H    0.973
     8   1 H    0.997 --     1 C    0.984
     9   1 H    0.998 --     1 C    0.971
    10   1 H    0.998 --     1 C    0.971
    11   1 H    1.000 --     3 C    0.975
    12   1 H    0.999 --     4 C    0.970
    13   1 H    0.997 --     7 C    0.973
    14   1 H    0.997 --     7 C    0.973
    15   1 H    0.993 --     7 C    0.979
 ---------------------------------------------------------------------------

Topologies differ in total number of bonds
Writing topology from bond orders to xtbtopo.mol

molecular dipole:
                 x           y           z       tot (Debye)
 q only:        0.514      -0.879       0.025
   full:        0.261      -1.171       0.045       3.051
molecular quadrupole (traceless):
                xx          xy          yy          xz          yz          zz
 q only:        3.151      -0.622      -2.360      -0.082       0.084      -0.792
  q+dip:        4.010      -2.207      -3.175      -0.039       0.159      -0.835
   full:        3.527      -2.420      -3.576       0.008       0.224       0.049

           -------------------------------------------------
          |                Geometry Summary                 |
           -------------------------------------------------

      molecular mass/u    :       96.1306119
   center of mass at/Å    :       -0.0739408       0.4066940      -0.0161236
  moments of inertia/u·Å² :        0.1264544E+03   0.1519681E+03   0.2721005E+03
rotational constants/cm⁻¹ :        0.1333100E+00   0.1109288E+00   0.6195370E-01

 * 15 selected distances

     #   Z          #   Z                                           value/Å
     1   6 C        2   6 C                                       1.4846798 (max)
     2   6 C        3   6 C                                       1.3797429
     3   6 C        4   6 C                                       1.3999329
     4   6 C        5   7 N                                       1.3186763
     2   6 C        6   7 N                                       1.3535554
     5   7 N        6   7 N                                       1.3313968
     6   7 N        7   6 C                                       1.4323075
     1   6 C        8   1 H                                       1.0863336
     1   6 C        9   1 H                                       1.0906689
     1   6 C       10   1 H                                       1.0905752
     3   6 C       11   1 H                                       1.0707753 (min)
     4   6 C       12   1 H                                       1.0717447
     7   6 C       13   1 H                                       1.0923196
     7   6 C       14   1 H                                       1.0925646
     7   6 C       15   1 H                                       1.0878307

 * 4 distinct bonds (by element types)

   Z      Z             #   av. dist./Å        max./Å        min./Å
   1 H    6 C           8     1.0853516     1.0925646     1.0707753
   6 C    6 C           3     1.4214519     1.4846798     1.3797429
   6 C    7 N           3     1.3681797     1.4323075     1.3186763
   7 N    7 N           1     1.3313968     1.3313968     1.3313968


optimized geometry written to: xtbopt.xyz


           -------------------------------------------------
          | TOTAL ENERGY              -20.624909391419 Eh   |
          | GRADIENT NORM               0.000406178280 Eh/α |
          | HOMO-LUMO GAP               4.935723422912 eV   |
           -------------------------------------------------

------------------------------------------------------------------------
 * finished run on 2026/01/15 at 10:26:58.145     
------------------------------------------------------------------------
 total:
 * wall-time:     0 d,  0 h,  0 min, 12.453 sec
 *  cpu-time:     0 d,  0 h,  0 min, 41.743 sec
 * ratio c/w:     3.352 speedup
 SCF:
 * wall-time:     0 d,  0 h,  0 min,  1.278 sec
 *  cpu-time:     0 d,  0 h,  0 min,  5.865 sec
 * ratio c/w:     4.588 speedup
 ANC optimizer:
 * wall-time:     0 d,  0 h,  0 min, 10.976 sec
 *  cpu-time:     0 d,  0 h,  0 min, 35.103 sec
 * ratio c/w:     3.198 speedup

