15
 energy: -20.624909391419 gnorm: 0.000406178280 xtb: 6.7.1 (edcfbbe)
C           -0.64395245831280       -1.66911177600441        0.09734420427244
C           -0.58500628643201       -0.18736284211287        0.02509962646855
C           -1.58209410677394        0.76618731314339        0.00934886070542
C           -0.90654736343988        1.99003972542354       -0.06570936593669
N            0.39904968577976        1.80664322113184       -0.09195475444452
N            0.58549720749390        0.48950158149341       -0.03725329237509
C            1.90843594054809       -0.05917557501434       -0.05430723461845
H           -1.67987658638526       -1.99439739495971        0.13156269355748
H           -0.13381739297009       -2.03349383232773        0.98983865498194
H           -0.16426053614318       -2.11940022467729       -0.77242018984359
H           -2.63967338743749        0.60257337732635        0.04562739671023
H           -1.31507566857882        2.98029623624928       -0.09937036390414
H            2.09552327350934       -0.64912794077264        0.84575739682565
H            2.05364172286218       -0.69600290337522       -0.93012883959312
H            2.60815695628022        0.77283103447640       -0.09343379280612
