17
 energy: -27.834810364946 gnorm: 0.000590748669 xtb: 6.7.1 (edcfbbe)
C           -1.55952537051916       -1.04043373609836       -1.07562313308361
C           -0.89524763229928       -0.09367334973129       -0.16817358322450
C           -1.15429736559996        1.16224499994792        0.32329169467586
C            0.00446046648592        1.87566844740078        0.64168837632731
N            1.14320074183063        1.32871578194463        0.25829343434125
N            0.97192545852923        0.11615880305794       -0.18017862438121
C            1.88152928705137       -0.49721257823114       -1.09463400291872
S            0.28764308707778       -1.16128126873737        1.32924772074745
O            0.28082235411468       -0.29892769985565        2.50333688362304
H           -0.89157478775162       -1.85694124233311       -1.34146321892281
H           -2.43588585283255       -1.46829150094430       -0.58630265024863
H           -1.87974873275329       -0.53558594819022       -1.98862653160892
H           -2.13572293241844        1.58552602283057        0.42029233577629
H            0.03037900411123        2.85491309905284        1.08087650985121
H            1.89875995672096        0.05231175064804       -2.03888578020779
H            1.56709064488640       -1.52285766044650       -1.27566255028775
H            2.88619167335241       -0.50033292032604       -0.66747088045831
