17
 energy: -27.834210028329 gnorm: 0.000652871114 xtb: 6.7.1 (edcfbbe)
C           -1.50551355518018       -0.98609797445036       -1.23861830894255
C           -0.90387998847963       -0.09746701322669       -0.23469012645128
C           -1.19457851591054        1.12332822245830        0.31934546776088
C           -0.06078612851666        1.81420528890529        0.75797161517580
N            1.10251813061080        1.29581175243705        0.41284460796197
N            0.96989889941482        0.11448454837654       -0.11355721465378
C            1.94443287694878       -0.43792999740073       -0.99896133581923
S            0.19445025160839       -1.25967439467061        1.26618384465331
O            0.11073378277889       -0.47193228614082        2.48885168898997
H           -1.75166013305293       -0.43018070845088       -2.14475813505040
H           -0.82687466543615       -1.79590020499521       -1.49696232952095
H           -2.41984379777118       -1.42797311391100       -0.84032806085217
H           -2.18021426504982        1.54433235552324        0.37733776048854
H           -0.06819351358824        2.76300299665664        1.26021637187632
H            2.05282735932802        0.19352380842289       -1.88481401340126
H            1.62728819932106       -1.43524432120708       -1.29875980032958
H            2.90939506296366       -0.50628795833411       -0.49129603188000
