      -----------------------------------------------------------      
     |                   =====================                   |     
     |                           x T B                           |     
     |                   =====================                   |     
     |                         S. Grimme                         |     
     |          Mulliken Center for Theoretical Chemistry        |     
     |                    University of Bonn                     |     
      -----------------------------------------------------------      

   * xtb version 6.7.1 (edcfbbe) compiled by 'conda@c0858423619e' on 2025-09-04

   xtb is free software: you can redistribute it and/or modify it under
   the terms of the GNU Lesser General Public License as published by
   the Free Software Foundation, either version 3 of the License, or
   (at your option) any later version.
   
   xtb is distributed in the hope that it will be useful,
   but WITHOUT ANY WARRANTY; without even the implied warranty of
   MERCHANTABILITY or FITNESS FOR A PARTICULAR PURPOSE.  See the
   GNU Lesser General Public License for more details.
   
   Cite this work as:
   * C. Bannwarth, E. Caldeweyher, S. Ehlert, A. Hansen, P. Pracht,
     J. Seibert, S. Spicher, S. Grimme, WIREs Comput. Mol. Sci., 2020, 11,
     e01493. DOI: 10.1002/wcms.1493
   
   for GFN2-xTB:
   * C. Bannwarth, S. Ehlert and S. Grimme., J. Chem. Theory Comput., 2019,
     15, 1652-1671. DOI: 10.1021/acs.jctc.8b01176
   for GFN1-xTB:
   * S. Grimme, C. Bannwarth, P. Shushkov, J. Chem. Theory Comput., 2017,
     13, 1989-2009. DOI: 10.1021/acs.jctc.7b00118
   for GFN0-xTB:
   * P. Pracht, E. Caldeweyher, S. Ehlert, S. Grimme, ChemRxiv, 2019, preprint.
     DOI: 10.26434/chemrxiv.8326202.v1
   for GFN-FF:
   * S. Spicher and S. Grimme, Angew. Chem. Int. Ed., 2020, 59, 15665-15673.
     DOI: 10.1002/anie.202004239
   
   for ALPB and GBSA implicit solvation:
   * S. Ehlert, M. Stahn, S. Spicher, S. Grimme, J. Chem. Theory Comput.,
     2021, 17, 4250-4261. DOI: 10.1021/acs.jctc.1c00471
   
   for ddCOSMO and CPCM-X implicit solvation:
   * M. Stahn, S. Ehlert, S. Grimme, J. Phys. Chem. A,
     2023, XX, XXXX-XXXX. DOI: 10.1021/acs.jpca.3c04382
   
   for DFT-D4:
   * E. Caldeweyher, C. Bannwarth and S. Grimme, J. Chem. Phys., 2017,
     147, 034112. DOI: 10.1063/1.4993215
   * E. Caldeweyher, S. Ehlert, A. Hansen, H. Neugebauer, S. Spicher,
     C. Bannwarth and S. Grimme, J. Chem. Phys., 2019, 150, 154122.
     DOI: 10.1063/1.5090222
   * E. Caldeweyher, J.-M. Mewes, S. Ehlert and S. Grimme, Phys. Chem. Chem. Phys.
     2020, 22, 8499-8512. DOI: 10.1039/D0CP00502A
   
   for sTDA-xTB:
   * S. Grimme and C. Bannwarth, J. Chem. Phys., 2016, 145, 054103.
     DOI: 10.1063/1.4959605
   
   in the mass-spec context:
   * V. Asgeirsson, C. Bauer and S. Grimme, Chem. Sci., 2017, 8, 4879.
     DOI: 10.1039/c7sc00601b
   * J. Koopman and S. Grimme, ACS Omega 2019, 4, 12, 15120-15133.
     DOI: 10.1021/acsomega.9b02011
   
   for metadynamics refer to:
   * S. Grimme, J. Chem. Theory Comput., 2019, 155, 2847-2862
     DOI: 10.1021/acs.jctc.9b00143
   
   for SPH calculations refer to:
   * S. Spicher and S. Grimme, J. Chem. Theory Comput., 2021, 17, 1701-1714
     DOI: 10.1021/acs.jctc.0c01306
   
   for ONIOM refer to:
   * C. Plett, A. Katbashev, S. Ehlert, S. Grimme, M. Bursch,
     Phys. Chem. Chem. Phys., 2023, 25, 17860-17868. DOI: 10.1039/D3CP02178E
   
   for DIPRO refer to:
   * J. Kohn, N. Gildemeister, S. Grimme, D. Fazzi, A. Hansen,
     J. Chem. Phys., 2023, just accepted.
   
   for PTB refer to:
   * S. Grimme, M. Mueller, A. Hansen, J. Chem. Phys., 2023, 158, 124111.
     DOI: 10.1063/5.0137838
   
   with help from (in alphabetical order)
   P. Atkinson, C. Bannwarth, F. Bohle, G. Brandenburg, E. Caldeweyher
   M. Checinski, S. Dohm, S. Ehlert, S. Ehrlich, I. Gerasimov, C. Hölzer
   A. Katbashev, J. Kohn, J. Koopman, C. Lavigne, S. Lehtola, F. März, M. Müller,
   F. Musil, H. Neugebauer, J. Pisarek, C. Plett, P. Pracht, F. Pultar,
   J. Seibert, P. Shushkov, S. Spicher, M. Stahn, M. Steiner, T. Strunk,
   J. Stückrath, T. Rose, and J. Unsleber
   
 * started run on 2026/01/15 at 10:08:56.845     
   ID    Z sym.   atoms
    1    6 C      1-4, 7
    2    7 N      5, 6
    3   16 S      8
    4    8 O      9
    5    1 H      10-17
constraining bond 8 2 to    2.2000000 Å, actual value:    1.8182312 Å
constraining bond 8 6 to    2.1000000 Å, actual value:    1.7626553 Å
constraining bond 2 6 to    1.9000000 Å, actual value:    2.6558465 Å

           -------------------------------------------------
          |                Calculation Setup                |
           -------------------------------------------------

          program call               : /h/28/cicsy/miniforge3/envs/elagente/bin/xtb N5-Me_TDSO_pathwayA_opt.xyz --opt --gfn 2 -P 4 --chrg 0 --input detailed_input.inp
          coordinate file            : N5-Me_TDSO_pathwayA_opt.xyz
          omp threads                :                     4


           -------------------------------------------------
          |                 G F N 2 - x T B                 |
           -------------------------------------------------

        Reference                      10.1021/acs.jctc.8b01176
      * Hamiltonian:
        H0-scaling (s, p, d)           1.850000    2.230000    2.230000
        zeta-weighting                 0.500000
      * Dispersion:
        s8                             2.700000
        a1                             0.520000
        a2                             5.000000
        s9                             5.000000
      * Repulsion:
        kExp                           1.500000    1.000000
        rExp                           1.000000
      * Coulomb:
        alpha                          2.000000
        third order                    shell-resolved
        anisotropic                    true
        a3                             3.000000
        a5                             4.000000
        cn-shift                       1.200000
        cn-exp                         4.000000
        max-rad                        5.000000


          ...................................................
          :                      SETUP                      :
          :.................................................:
          :  # basis functions                  50          :
          :  # atomic orbitals                  49          :
          :  # shells                           27          :
          :  # electrons                        50          :
          :  max. iterations                   250          :
          :  Hamiltonian                  GFN2-xTB          :
          :  restarted?                      false          :
          :  GBSA solvation                  false          :
          :  PC potential                    false          :
          :  electronic temp.          300.0000000     K    :
          :  accuracy                    1.0000000          :
          :  -> integral cutoff          0.2500000E+02      :
          :  -> integral neglect         0.1000000E-07      :
          :  -> SCF convergence          0.1000000E-05 Eh   :
          :  -> wf. convergence          0.1000000E-03 e    :
          :  Broyden damping             0.4000000          :
          :  net charge                          0          :
          :  unpaired electrons                  0          :
          ...................................................

 iter      E             dE          RMSdq      gap      omega  full diag
   1    -28.1490206 -0.281490E+02  0.477E+00    2.89       0.0  T
   2    -28.1916758 -0.426552E-01  0.353E+00    2.97       1.0  T
   3    -28.2014658 -0.979001E-02  0.163E+00    2.80       1.0  T
   4    -28.2102890 -0.882321E-02  0.697E-01    2.84       1.0  T
   5    -28.2129394 -0.265039E-02  0.291E-01    2.81       1.0  T
   6    -28.2126334  0.306039E-03  0.184E-01    2.82       1.0  T
   7    -28.2131041 -0.470702E-03  0.330E-02    2.81       1.0  T
   8    -28.2131048 -0.697576E-06  0.164E-02    2.81       1.5  T
   9    -28.2131052 -0.434051E-06  0.381E-03    2.81       6.4  T
  10    -28.2131052 -0.200637E-07  0.196E-03    2.81      12.4  T
  11    -28.2131052 -0.504557E-08  0.652E-04    2.81      37.2  T
  12    -28.2131052 -0.108227E-08  0.190E-04    2.81     127.6  T

   *** convergence criteria satisfied after 12 iterations ***

         #    Occupation            Energy/Eh            Energy/eV
      -------------------------------------------------------------
         1        2.0000           -0.7605707             -20.6962
       ...           ...                  ...                  ...
        19        2.0000           -0.4765041             -12.9663
        20        2.0000           -0.4675149             -12.7217
        21        2.0000           -0.4446108             -12.0985
        22        2.0000           -0.4344699             -11.8225
        23        2.0000           -0.3935236             -10.7083
        24        2.0000           -0.3821069             -10.3977
        25        2.0000           -0.3696405             -10.0584 (HOMO)
        26                         -0.2662549              -7.2452 (LUMO)
        27                         -0.2193310              -5.9683
        28                         -0.1774395              -4.8284
        29                         -0.1407003              -3.8286
        30                         -0.0637921              -1.7359
       ...                                ...                  ...
        49                          0.9352640              25.4498
      -------------------------------------------------------------
                  HL-Gap            0.1033855 Eh            2.8133 eV
             Fermi-level           -0.3179477 Eh           -8.6518 eV

 SCC (total)                   0 d,  0 h,  0 min,  0.783 sec
 SCC setup                      ...        0 min,  0.015 sec (  1.961%)
 Dispersion                     ...        0 min,  0.011 sec (  1.418%)
 classical contributions        ...        0 min,  0.024 sec (  3.059%)
 integral evaluation            ...        0 min,  0.001 sec (  0.115%)
 iterations                     ...        0 min,  0.660 sec ( 84.273%)
 molecular gradient             ...        0 min,  0.069 sec (  8.864%)
 printout                       ...        0 min,  0.002 sec (  0.306%)

         :::::::::::::::::::::::::::::::::::::::::::::::::::::
         ::                     SUMMARY                     ::
         :::::::::::::::::::::::::::::::::::::::::::::::::::::
         :: total energy             -26.405645809312 Eh    ::
         :: gradient norm              1.721006605396 Eh/a0 ::
         :: HOMO-LUMO gap              2.813263976146 eV    ::
         ::.................................................::
         :: SCC energy               -28.213063696339 Eh    ::
         :: -> isotropic ES            0.043009702085 Eh    ::
         :: -> anisotropic ES          0.000506189191 Eh    ::
         :: -> anisotropic XC          0.016675409338 Eh    ::
         :: -> dispersion             -0.015132924412 Eh    ::
         :: repulsion energy           0.323903692786 Eh    ::
         :: add. restraining           1.483514194241 Eh    ::
         :: total charge              -0.000000000000 e     ::
         :::::::::::::::::::::::::::::::::::::::::::::::::::::

      ----------------------------------------------------------- 
     |                   =====================                   |
     |                        A N C O P T                        |
     |                   =====================                   |
     |               Approximate Normal Coordinate               |
     |                Rational Function Optimizer                |
      ----------------------------------------------------------- 
      ----------------------------------------------------------- 
     |                   =====================                   |
     |                        A N C O P T                        |
     |                   =====================                   |
     |               Approximate Normal Coordinate               |
     |                Rational Function Optimizer                |
      ----------------------------------------------------------- 

          ...................................................
          :                      SETUP                      :
          :.................................................:
          :   optimization level            normal          :
          :   max. optcycles                   200          :
          :   ANC micro-cycles                  20          :
          :   degrees of freedom                45          :
          :.................................................:
          :   RF solver                   davidson          :
          :   write xtbopt.log                true          :
          :   linear?                        false          :
          :   energy convergence         0.5000000E-05 Eh   :
          :   grad. convergence          0.1000000E-02 Eh/α :
          :   maxmium RF displ.          1.0000000          :
          :   Hlow (freq-cutoff)         0.1000000E-01      :
          :   Hmax (freq-cutoff)         5.0000000          :
          :   S6 in model hess.         20.0000000          :
          ...................................................

generating ANC from exact Hessian ...
Using Lindh-Hessian (1995)
 Shifting diagonal of input Hessian by   0.27589932386877863     
 Lowest  eigenvalues of input Hessian
    0.010000    0.000000    0.000000    0.000000    0.000000    0.000000
    0.000000    0.282662    0.284487    0.288243    0.288933    0.291136
    0.306391    0.325642    0.327735    0.331839    0.339596    0.345179
 Highest eigenvalues
    1.882629    2.293846    2.476856    2.639425    3.821466    4.507334


........................................................................
.............................. CYCLE    1 ..............................
........................................................................

 iter      E             dE          RMSdq      gap      omega  full diag
   1    -28.2131052 -0.282131E+02  0.740E-05    2.81       0.0  T
   2    -28.2131052 -0.452616E-11  0.504E-05    2.81     481.0  T
   3    -28.2131052 -0.155254E-11  0.378E-05    2.81     641.7  T
     SCC iter.                  ...        0 min,  0.176 sec
     gradient                   ...        0 min,  0.081 sec
 * total energy  :   -26.4056458 Eh     change       -0.1011067E-09 Eh
   gradient norm :     1.7210052 Eh/α   predicted     0.0000000E+00 (-100.00%)
   displ. norm   :     0.6728646 α      lambda       -0.1097122E+01
   maximum displ.:     0.4482882 α      in ANC's #31, #43, #39, ...

........................................................................
.............................. CYCLE    2 ..............................
........................................................................

 iter      E             dE          RMSdq      gap      omega  full diag
   1    -28.1568369 -0.281568E+02  0.150E+00    2.70       0.0  T
   2    -28.1610341 -0.419722E-02  0.108E+00    2.55       1.0  T
   3    -28.1612797 -0.245623E-03  0.534E-01    2.59       1.0  T
   4    -28.1619424 -0.662706E-03  0.259E-01    2.60       1.0  T
   5    -28.1625646 -0.622164E-03  0.924E-02    2.58       1.0  T
   6    -28.1625694 -0.485215E-05  0.382E-02    2.59       1.0  T
   7    -28.1625786 -0.916224E-05  0.120E-02    2.59       2.0  T
   8    -28.1625789 -0.332688E-06  0.690E-03    2.59       3.5  T
   9    -28.1625791 -0.202758E-06  0.167E-03    2.59      14.5  T
  10    -28.1625792 -0.403857E-08  0.936E-04    2.59      25.9  T
  11    -28.1625792 -0.190836E-08  0.243E-04    2.59      99.7  T
     SCC iter.                  ...        0 min,  0.694 sec
     gradient                   ...        0 min,  0.002 sec
 * total energy  :   -27.2815835 Eh     change       -0.8759377E+00 Eh
   gradient norm :     0.9620593 Eh/α   predicted    -0.7969203E+00 (  -9.02%)
   displ. norm   :     0.6269945 α      lambda       -0.5736304E+00
   maximum displ.:     0.4062618 α      in ANC's #31, #43, #25, ...

........................................................................
.............................. CYCLE    3 ..............................
........................................................................

 iter      E             dE          RMSdq      gap      omega  full diag
   1    -28.0498400 -0.280498E+02  0.149E+00    1.51       0.0  T
   2    -28.0515292 -0.168923E-02  0.530E-01    1.54       1.0  T
   3    -28.0505530  0.976229E-03  0.645E-01    1.54       1.0  T
   4    -28.0529058 -0.235288E-02  0.128E-01    1.53       1.0  T
   5    -28.0529058  0.648008E-07  0.916E-02    1.53       1.0  T
   6    -28.0529539 -0.481507E-04  0.431E-02    1.53       1.0  T
   7    -28.0529691 -0.151267E-04  0.118E-02    1.53       2.1  T
   8    -28.0529697 -0.666331E-06  0.587E-03    1.53       4.1  T
   9    -28.0529699 -0.221111E-06  0.280E-03    1.53       8.7  T
  10    -28.0529700 -0.205500E-07  0.739E-04    1.53      32.8  T
  11    -28.0529700 -0.235127E-08  0.321E-04    1.53      75.6  T
     SCC iter.                  ...        0 min,  0.779 sec
     gradient                   ...        0 min,  0.101 sec
 * total energy  :   -27.6433139 Eh     change       -0.3617303E+00 Eh
   gradient norm :     0.2767782 Eh/α   predicted    -0.3995685E+00 (  10.46%)
   displ. norm   :     0.4232125 α      lambda       -0.8300355E-01
   maximum displ.:     0.2563918 α      in ANC's #1, #9, #25, ...

........................................................................
.............................. CYCLE    4 ..............................
........................................................................

 iter      E             dE          RMSdq      gap      omega  full diag
   1    -28.0186872 -0.280187E+02  0.872E-01    1.33       0.0  T
   2    -28.0191950 -0.507750E-03  0.386E-01    1.36       1.0  T
   3    -28.0187611  0.433838E-03  0.265E-01    1.34       1.0  T
   4    -28.0195642 -0.803050E-03  0.879E-02    1.35       1.0  T
   5    -28.0195595  0.472645E-05  0.539E-02    1.35       1.0  T
   6    -28.0195889 -0.294158E-04  0.293E-02    1.34       1.0  T
   7    -28.0195953 -0.646251E-05  0.937E-03    1.35       2.6  T
   8    -28.0195958 -0.410709E-06  0.347E-03    1.35       7.0  T
   9    -28.0195958 -0.311151E-07  0.207E-03    1.35      11.7  T
  10    -28.0195958 -0.189598E-07  0.640E-04    1.35      37.9  T
  11    -28.0195958 -0.869399E-09  0.222E-04    1.35     109.2  T
     SCC iter.                  ...        0 min,  0.890 sec
     gradient                   ...        0 min,  0.103 sec
 * total energy  :   -27.6958402 Eh     change       -0.5252633E-01 Eh
   gradient norm :     0.1165355 Eh/α   predicted    -0.4893510E-01 (  -6.84%)
   displ. norm   :     0.3177259 α      lambda       -0.2289153E-01
   maximum displ.:     0.2019296 α      in ANC's #1, #9, #25, ...

........................................................................
.............................. CYCLE    5 ..............................
........................................................................

 iter      E             dE          RMSdq      gap      omega  full diag
   1    -28.0169475 -0.280169E+02  0.409E-01    1.38       0.0  T
   2    -28.0170802 -0.132687E-03  0.205E-01    1.38       1.0  T
   3    -28.0169394  0.140878E-03  0.165E-01    1.38       1.0  T
   4    -28.0171088 -0.169474E-03  0.705E-02    1.38       1.0  T
   5    -28.0171638 -0.549705E-04  0.269E-02    1.38       1.0  T
   6    -28.0171723 -0.845013E-05  0.104E-02    1.38       2.3  T
   7    -28.0171728 -0.583842E-06  0.500E-03    1.38       4.9  T
   8    -28.0171729 -0.878143E-07  0.234E-03    1.38      10.4  T
   9    -28.0171729 -0.213339E-07  0.120E-03    1.38      20.2  T
  10    -28.0171729 -0.563245E-08  0.352E-04    1.38      68.9  T
  11    -28.0171729 -0.279666E-09  0.148E-04    1.38     163.9  T
     SCC iter.                  ...        0 min,  0.599 sec
     gradient                   ...        0 min,  0.067 sec
 * total energy  :   -27.7132824 Eh     change       -0.1744218E-01 Eh
   gradient norm :     0.1020494 Eh/α   predicted    -0.1260120E-01 ( -27.75%)
   displ. norm   :     0.4465613 α      lambda       -0.2688888E-01
   maximum displ.:     0.3101922 α      in ANC's #9, #8, #25, ...

........................................................................
.............................. CYCLE    6 ..............................
........................................................................

 iter      E             dE          RMSdq      gap      omega  full diag
   1    -28.0150220 -0.280150E+02  0.728E-01    1.53       0.0  T
   2    -28.0136531  0.136888E-02  0.795E-01    1.47       1.0  T
   3    -28.0180702 -0.441708E-02  0.260E-01    1.50       1.0  T
   4    -28.0175100  0.560209E-03  0.208E-01    1.50       1.0  T
   5    -28.0181562 -0.646186E-03  0.458E-02    1.50       1.0  T
   6    -28.0181734 -0.172406E-04  0.182E-02    1.50       1.3  T
   7    -28.0181734  0.629598E-09  0.936E-03    1.50       2.6  T
   8    -28.0181740 -0.639722E-06  0.378E-03    1.50       6.4  T
   9    -28.0181741 -0.589391E-07  0.188E-03    1.50      12.9  T
  10    -28.0181741 -0.941357E-08  0.576E-04    1.50      42.1  T
  11    -28.0181741 -0.774701E-09  0.262E-04    1.50      92.6  T
     SCC iter.                  ...        0 min,  0.873 sec
     gradient                   ...        0 min,  0.076 sec
 * total energy  :   -27.7286013 Eh     change       -0.1531894E-01 Eh
   gradient norm :     0.1369590 Eh/α   predicted    -0.1612550E-01 (   5.27%)
   displ. norm   :     0.6217379 α      lambda       -0.2164271E-01
   maximum displ.:     0.5023129 α      in ANC's #1, #9, #8, ...

........................................................................
.............................. CYCLE    7 ..............................
........................................................................

 iter      E             dE          RMSdq      gap      omega  full diag
   1    -28.0317186 -0.280317E+02  0.620E-01    1.52       0.0  T
   2    -28.0316007  0.117854E-03  0.415E-01    1.55       1.0  T
   3    -28.0317039 -0.103196E-03  0.317E-01    1.52       1.0  T
   4    -28.0324001 -0.696191E-03  0.117E-01    1.53       1.0  T
   5    -28.0325127 -0.112610E-03  0.562E-02    1.53       1.0  T
   6    -28.0325360 -0.233103E-04  0.189E-02    1.53       1.3  T
   7    -28.0325382 -0.213965E-05  0.956E-03    1.53       2.5  T
   8    -28.0325389 -0.729043E-06  0.316E-03    1.53       7.7  T
   9    -28.0325390 -0.511493E-07  0.172E-03    1.53      14.1  T
  10    -28.0325390 -0.640710E-08  0.429E-04    1.53      56.6  T
  11    -28.0325390 -0.434493E-09  0.234E-04    1.53     103.8  T
     SCC iter.                  ...        0 min,  0.852 sec
     gradient                   ...        0 min,  0.095 sec
 * total energy  :   -27.7400544 Eh     change       -0.1145309E-01 Eh
   gradient norm :     0.0855335 Eh/α   predicted    -0.1500439E-01 (  31.01%)
   displ. norm   :     0.2919758 α      lambda       -0.1221091E-01
   maximum displ.:     0.1967975 α      in ANC's #9, #1, #8, ...

........................................................................
.............................. CYCLE    8 ..............................
........................................................................

 iter      E             dE          RMSdq      gap      omega  full diag
   1    -28.0525608 -0.280526E+02  0.310E-01    1.64       0.0  T
   2    -28.0522714  0.289388E-03  0.401E-01    1.60       1.0  T
   3    -28.0532921 -0.102067E-02  0.162E-01    1.62       1.0  T
   4    -28.0531949  0.971819E-04  0.959E-02    1.63       1.0  T
   5    -28.0533151 -0.120189E-03  0.205E-02    1.63       1.2  T
   6    -28.0533174 -0.230415E-05  0.117E-02    1.63       2.1  T
   7    -28.0533180 -0.664652E-06  0.493E-03    1.63       4.9  T
   8    -28.0533182 -0.156102E-06  0.224E-03    1.63      10.8  T
   9    -28.0533182 -0.174285E-07  0.851E-04    1.63      28.5  T
  10    -28.0533182 -0.213458E-08  0.270E-04    1.63      89.9  T
     SCC iter.                  ...        0 min,  0.768 sec
     gradient                   ...        0 min,  0.109 sec
 * total energy  :   -27.7477715 Eh     change       -0.7717092E-02 Eh
   gradient norm :     0.0622976 Eh/α   predicted    -0.6625946E-02 ( -14.14%)
   displ. norm   :     0.2145192 α      lambda       -0.7563869E-02
   maximum displ.:     0.1428501 α      in ANC's #9, #25, #8, ...

........................................................................
.............................. CYCLE    9 ..............................
........................................................................

 iter      E             dE          RMSdq      gap      omega  full diag
   1    -28.0713986 -0.280714E+02  0.306E-01    1.62       0.0  T
   2    -28.0713714  0.272396E-04  0.259E-01    1.60       1.0  T
   3    -28.0717055 -0.334138E-03  0.124E-01    1.61       1.0  T
   4    -28.0716994  0.611262E-05  0.566E-02    1.61       1.0  T
   5    -28.0717400 -0.405552E-04  0.137E-02    1.61       1.8  T
   6    -28.0717412 -0.122683E-05  0.652E-03    1.61       3.7  T
   7    -28.0717416 -0.365782E-06  0.258E-03    1.61       9.4  T
   8    -28.0717416 -0.617981E-07  0.653E-04    1.61      37.1  T
   9    -28.0717416 -0.961368E-09  0.243E-04    1.61      99.7  T
     SCC iter.                  ...        0 min,  1.587 sec
     gradient                   ...        0 min,  0.002 sec
 * total energy  :   -27.7528143 Eh     change       -0.5042804E-02 Eh
   gradient norm :     0.0413828 Eh/α   predicted    -0.3955964E-02 ( -21.55%)
   displ. norm   :     0.1481545 α      lambda       -0.2634985E-02
   maximum displ.:     0.0913067 α      in ANC's #9, #1, #25, ...

........................................................................
.............................. CYCLE   10 ..............................
........................................................................

 iter      E             dE          RMSdq      gap      omega  full diag
   1    -28.0761429 -0.280761E+02  0.220E-01    1.59       0.0  T
   2    -28.0761188  0.241376E-04  0.158E-01    1.57       1.0  T
   3    -28.0762190 -0.100247E-03  0.951E-02    1.58       1.0  T
   4    -28.0762484 -0.293665E-04  0.372E-02    1.58       1.0  T
   5    -28.0762637 -0.153327E-04  0.125E-02    1.58       1.9  T
   6    -28.0762648 -0.101726E-05  0.436E-03    1.58       5.6  T
   7    -28.0762649 -0.162871E-06  0.146E-03    1.58      16.6  T
   8    -28.0762649 -0.100487E-07  0.768E-04    1.58      31.6  T
   9    -28.0762649 -0.357484E-08  0.316E-04    1.58      76.6  T
     SCC iter.                  ...        0 min,  0.505 sec
     gradient                   ...        0 min,  0.073 sec
 * total energy  :   -27.7545510 Eh     change       -0.1736707E-02 Eh
   gradient norm :     0.0259214 Eh/α   predicted    -0.1346414E-02 ( -22.47%)
   displ. norm   :     0.1200252 α      lambda       -0.1089243E-02
   maximum displ.:     0.0679953 α      in ANC's #1, #9, #4, ...

........................................................................
.............................. CYCLE   11 ..............................
........................................................................

 iter      E             dE          RMSdq      gap      omega  full diag
   1    -28.0755728 -0.280756E+02  0.119E-01    1.57       0.0  T
   2    -28.0755738 -0.100161E-05  0.746E-02    1.57       1.0  T
   3    -28.0755672  0.666641E-05  0.612E-02    1.57       1.0  T
   4    -28.0755968 -0.296202E-04  0.179E-02    1.57       1.4  T
   5    -28.0755997 -0.294404E-05  0.487E-03    1.57       5.0  T
   6    -28.0755998 -0.387828E-07  0.305E-03    1.57       7.9  T
   7    -28.0755999 -0.957209E-07  0.944E-04    1.57      25.7  T
   8    -28.0755999 -0.438799E-09  0.716E-04    1.57      33.9  T
     SCC iter.                  ...        0 min,  0.649 sec
     gradient                   ...        0 min,  0.110 sec
 * total energy  :   -27.7553250 Eh     change       -0.7739518E-03 Eh
   gradient norm :     0.0204162 Eh/α   predicted    -0.5524673E-03 ( -28.62%)
   displ. norm   :     0.1147104 α      lambda       -0.8532736E-03
   maximum displ.:     0.0635433 α      in ANC's #1, #2, #4, ...

........................................................................
.............................. CYCLE   12 ..............................
........................................................................

 iter      E             dE          RMSdq      gap      omega  full diag
   1    -28.0734198 -0.280734E+02  0.995E-02    1.57       0.0  T
   2    -28.0734286 -0.875477E-05  0.592E-02    1.57       1.0  T
   3    -28.0734285  0.118016E-07  0.436E-02    1.57       1.0  T
   4    -28.0734385 -0.994342E-05  0.172E-02    1.57       1.4  T
   5    -28.0734422 -0.372276E-05  0.758E-03    1.57       3.2  T
   6    -28.0734427 -0.475391E-06  0.240E-03    1.57      10.1  T
   7    -28.0734427 -0.402292E-08  0.120E-03    1.57      20.2  T
   8    -28.0734427 -0.102576E-07  0.464E-04    1.57      52.2  T
   9    -28.0734427 -0.644636E-09  0.135E-04    1.57     179.8  T
     SCC iter.                  ...        0 min,  0.740 sec
     gradient                   ...        0 min,  0.064 sec
 * total energy  :   -27.7559549 Eh     change       -0.6299323E-03 Eh
   gradient norm :     0.0173576 Eh/α   predicted    -0.4322513E-03 ( -31.38%)
   displ. norm   :     0.1660740 α      lambda       -0.9673052E-03
   maximum displ.:     0.0859227 α      in ANC's #1, #2, #5, ...

........................................................................
.............................. CYCLE   13 ..............................
........................................................................

 iter      E             dE          RMSdq      gap      omega  full diag
   1    -28.0707989 -0.280708E+02  0.115E-01    1.57       0.0  T
   2    -28.0708088 -0.986231E-05  0.660E-02    1.57       1.0  T
   3    -28.0708106 -0.185737E-05  0.499E-02    1.57       1.0  T
   4    -28.0708252 -0.145662E-04  0.200E-02    1.57       1.2  T
   5    -28.0708295 -0.424899E-05  0.107E-02    1.57       2.3  T
   6    -28.0708304 -0.931412E-06  0.293E-03    1.57       8.3  T
   7    -28.0708304 -0.169967E-07  0.144E-03    1.57      16.8  T
   8    -28.0708304 -0.130880E-07  0.596E-04    1.57      40.7  T
   9    -28.0708304 -0.622286E-09  0.157E-04    1.57     154.9  T
     SCC iter.                  ...        0 min,  0.844 sec
     gradient                   ...        0 min,  0.010 sec
 * total energy  :   -27.7567106 Eh     change       -0.7556799E-03 Eh
   gradient norm :     0.0197463 Eh/α   predicted    -0.4969926E-03 ( -34.23%)
   displ. norm   :     0.2846795 α      lambda       -0.1548951E-02
   maximum displ.:     0.1571709 α      in ANC's #2, #1, #5, ...

........................................................................
.............................. CYCLE   14 ..............................
........................................................................

 iter      E             dE          RMSdq      gap      omega  full diag
   1    -28.0670850 -0.280671E+02  0.161E-01    1.58       0.0  T
   2    -28.0670976 -0.125711E-04  0.897E-02    1.59       1.0  T
   3    -28.0670858  0.118004E-04  0.696E-02    1.58       1.0  T
   4    -28.0671200 -0.341770E-04  0.238E-02    1.58       1.0  T
   5    -28.0671249 -0.493274E-05  0.153E-02    1.58       1.6  T
   6    -28.0671270 -0.203445E-05  0.398E-03    1.58       6.1  T
   7    -28.0671270 -0.565157E-07  0.180E-03    1.58      13.5  T
   8    -28.0671270 -0.153133E-07  0.892E-04    1.58      27.2  T
   9    -28.0671270 -0.235867E-08  0.193E-04    1.58     125.4  T
     SCC iter.                  ...        0 min,  0.742 sec
     gradient                   ...        0 min,  0.031 sec
 * total energy  :   -27.7579451 Eh     change       -0.1234498E-02 Eh
   gradient norm :     0.0278045 Eh/α   predicted    -0.8372388E-03 ( -32.18%)
   displ. norm   :     0.4511123 α      lambda       -0.2333908E-02
   maximum displ.:     0.2573969 α      in ANC's #2, #1, #5, ...

........................................................................
.............................. CYCLE   15 ..............................
........................................................................

 iter      E             dE          RMSdq      gap      omega  full diag
   1    -28.0624351 -0.280624E+02  0.210E-01    1.59       0.0  T
   2    -28.0624438 -0.866569E-05  0.121E-01    1.59       1.0  T
   3    -28.0623421  0.101663E-03  0.104E-01    1.59       1.0  T
   4    -28.0624683 -0.126212E-03  0.307E-02    1.59       1.0  T
   5    -28.0624767 -0.837670E-05  0.164E-02    1.59       1.5  T
   6    -28.0624784 -0.166417E-05  0.532E-03    1.59       4.6  T
   7    -28.0624785 -0.137211E-06  0.215E-03    1.59      11.3  T
   8    -28.0624785 -0.119887E-07  0.107E-03    1.59      22.6  T
   9    -28.0624785 -0.725503E-08  0.377E-04    1.59      64.3  T
  10    -28.0624785 -0.609027E-09  0.132E-04    1.59     184.4  T
     SCC iter.                  ...        0 min,  0.732 sec
     gradient                   ...        0 min,  0.014 sec
 * total energy  :   -27.7598521 Eh     change       -0.1907062E-02 Eh
   gradient norm :     0.0321175 Eh/α   predicted    -0.1404420E-02 ( -26.36%)
   displ. norm   :     0.5364506 α      lambda       -0.3207844E-02
   maximum displ.:     0.3239220 α      in ANC's #2, #5, #4, ...

........................................................................
.............................. CYCLE   16 ..............................
........................................................................

 iter      E             dE          RMSdq      gap      omega  full diag
   1    -28.0585563 -0.280586E+02  0.240E-01    1.61       0.0  T
   2    -28.0585672 -0.108336E-04  0.138E-01    1.61       1.0  T
   3    -28.0584747  0.924074E-04  0.829E-02    1.60       1.0  T
   4    -28.0585714 -0.966323E-04  0.257E-02    1.61       1.0  T
   5    -28.0585785 -0.709956E-05  0.118E-02    1.61       2.1  T
   6    -28.0585793 -0.802963E-06  0.469E-03    1.60       5.2  T
   7    -28.0585794 -0.109561E-06  0.193E-03    1.60      12.5  T
   8    -28.0585794 -0.100739E-07  0.104E-03    1.60      23.3  T
   9    -28.0585794 -0.608887E-08  0.339E-04    1.60      71.6  T
  10    -28.0585794 -0.504549E-09  0.139E-04    1.60     174.7  T
     SCC iter.                  ...        0 min,  0.739 sec
     gradient                   ...        0 min,  0.078 sec
 * total energy  :   -27.7623751 Eh     change       -0.2522962E-02 Eh
   gradient norm :     0.0341710 Eh/α   predicted    -0.2065493E-02 ( -18.13%)
   displ. norm   :     0.4986249 α      lambda       -0.3556880E-02
   maximum displ.:     0.2916516 α      in ANC's #2, #1, #5, ...

........................................................................
.............................. CYCLE   17 ..............................
........................................................................

 iter      E             dE          RMSdq      gap      omega  full diag
   1    -28.0605011 -0.280605E+02  0.241E-01    1.59       0.0  T
   2    -28.0605223 -0.211924E-04  0.139E-01    1.59       1.0  T
   3    -28.0604540  0.683514E-04  0.112E-01    1.59       1.0  T
   4    -28.0605429 -0.889203E-04  0.360E-02    1.59       1.0  T
   5    -28.0605558 -0.128898E-04  0.115E-02    1.59       2.1  T
   6    -28.0605569 -0.108805E-05  0.587E-03    1.59       4.1  T
   7    -28.0605572 -0.284945E-06  0.266E-03    1.59       9.1  T
   8    -28.0605572 -0.332307E-07  0.124E-03    1.59      19.5  T
   9    -28.0605572 -0.491959E-08  0.635E-04    1.59      38.2  T
  10    -28.0605572 -0.332171E-08  0.120E-04    1.59     202.4  T
     SCC iter.                  ...        0 min,  0.761 sec
     gradient                   ...        0 min,  0.071 sec
 * total energy  :   -27.7651036 Eh     change       -0.2728536E-02 Eh
   gradient norm :     0.0426515 Eh/α   predicted    -0.2220623E-02 ( -18.61%)
   displ. norm   :     0.3611733 α      lambda       -0.5049763E-02
   maximum displ.:     0.2090026 α      in ANC's #2, #5, #3, ...

........................................................................
.............................. CYCLE   18 ..............................
........................................................................

 iter      E             dE          RMSdq      gap      omega  full diag
   1    -28.0749476 -0.280749E+02  0.336E-01    1.67       0.0  T
   2    -28.0750393 -0.917407E-04  0.218E-01    1.65       1.0  T
   3    -28.0751240 -0.847067E-04  0.137E-01    1.67       1.0  T
   4    -28.0752171 -0.931014E-04  0.309E-02    1.66       1.0  T
   5    -28.0752250 -0.782834E-05  0.137E-02    1.66       1.8  T
   6    -28.0752258 -0.839953E-06  0.821E-03    1.66       3.0  T
   7    -28.0752266 -0.761571E-06  0.350E-03    1.66       6.9  T
   8    -28.0752267 -0.980676E-07  0.112E-03    1.66      21.7  T
   9    -28.0752267 -0.119215E-08  0.511E-04    1.66      47.5  T
  10    -28.0752267 -0.519520E-09  0.167E-04    1.66     145.0  T
     SCC iter.                  ...        0 min,  0.541 sec
     gradient                   ...        0 min,  0.065 sec
 * total energy  :   -27.7666214 Eh     change       -0.1517739E-02 Eh
   gradient norm :     0.0562247 Eh/α   predicted    -0.2854239E-02 (  88.06%)
   displ. norm   :     0.3964213 α      lambda       -0.4601919E-02
   maximum displ.:     0.2486030 α      in ANC's #1, #2, #5, ...

........................................................................
.............................. CYCLE   19 ..............................
........................................................................

 iter      E             dE          RMSdq      gap      omega  full diag
   1    -28.0762002 -0.280762E+02  0.290E-01    1.57       0.0  T
   2    -28.0762171 -0.168775E-04  0.123E-01    1.56       1.0  T
   3    -28.0761247  0.923806E-04  0.146E-01    1.56       1.0  T
   4    -28.0763127 -0.188063E-03  0.290E-02    1.56       1.0  T
   5    -28.0763134 -0.666398E-06  0.164E-02    1.56       1.5  T
   6    -28.0763153 -0.186297E-05  0.891E-03    1.56       2.7  T
   7    -28.0763161 -0.797009E-06  0.273E-03    1.56       8.9  T
   8    -28.0763161 -0.189755E-07  0.150E-03    1.56      16.2  T
   9    -28.0763161 -0.709991E-08  0.507E-04    1.56      47.9  T
  10    -28.0763161 -0.149788E-08  0.153E-04    1.56     158.8  T
     SCC iter.                  ...        0 min,  0.674 sec
     gradient                   ...        0 min,  0.103 sec
 * total energy  :   -27.7693610 Eh     change       -0.2739579E-02 Eh
   gradient norm :     0.0682929 Eh/α   predicted    -0.2662541E-02 (  -2.81%)
   displ. norm   :     0.2175256 α      lambda       -0.2448929E-02
   maximum displ.:     0.1124810 α      in ANC's #2, #1, #5, ...

........................................................................
.............................. CYCLE   20 ..............................
........................................................................

 iter      E             dE          RMSdq      gap      omega  full diag
   1    -28.0758774 -0.280759E+02  0.131E-01    1.56       0.0  T
   2    -28.0758740  0.341471E-05  0.840E-02    1.56       1.0  T
   3    -28.0758716  0.238910E-05  0.679E-02    1.55       1.0  T
   4    -28.0759104 -0.388366E-04  0.226E-02    1.56       1.1  T
   5    -28.0759152 -0.476168E-05  0.688E-03    1.56       3.5  T
   6    -28.0759154 -0.191751E-06  0.303E-03    1.56       8.0  T
   7    -28.0759155 -0.703448E-07  0.116E-03    1.56      21.0  T
   8    -28.0759155 -0.269922E-08  0.659E-04    1.56      36.8  T
   9    -28.0759155 -0.319597E-08  0.180E-04    1.56     134.4  T
     SCC iter.                  ...        0 min,  0.611 sec
     gradient                   ...        0 min,  0.111 sec
 * total energy  :   -27.7714645 Eh     change       -0.2103517E-02 Eh
   gradient norm :     0.0626533 Eh/α   predicted    -0.1282402E-02 ( -39.04%)
   displ. norm   :     0.3930305 α      lambda       -0.6525498E-02
   maximum displ.:     0.1829744 α      in ANC's #13, #2, #1, ...
 * RMSD in coord.:     1.0031955 α      energy gain  -0.1365819E+01 Eh

generating ANC from exact Hessian ...
Using Lindh-Hessian (1995)
 Shifting diagonal of input Hessian by    8.0588702796923033E-003
 Lowest  eigenvalues of input Hessian
    0.000000    0.000000    0.000000    0.000000    0.000000    0.000000
    0.010000    0.012598    0.013928    0.014226    0.017426    0.018905
    0.020976    0.034278    0.042472    0.053617    0.058167    0.063292
 Highest eigenvalues
    1.701026    1.983679    2.093054    2.383419    2.698014    4.071353


........................................................................
.............................. CYCLE   21 ..............................
........................................................................

 iter      E             dE          RMSdq      gap      omega  full diag
   1    -28.0877844 -0.280878E+02  0.301E-01    1.61       0.0  T
   2    -28.0877654  0.189213E-04  0.220E-01    1.60       1.0  T
   3    -28.0878362 -0.707169E-04  0.139E-01    1.60       1.0  T
   4    -28.0879724 -0.136260E-03  0.488E-02    1.61       1.0  T
   5    -28.0879953 -0.229014E-04  0.179E-02    1.60       1.4  T
   6    -28.0879959 -0.604250E-06  0.114E-02    1.60       2.1  T
   7    -28.0879973 -0.134765E-05  0.202E-03    1.60      12.0  T
   8    -28.0879973 -0.664655E-08  0.128E-03    1.60      19.0  T
   9    -28.0879973 -0.888536E-08  0.377E-04    1.60      64.3  T
  10    -28.0879973 -0.910845E-10  0.163E-04    1.60     148.9  T
     SCC iter.                  ...        0 min,  0.794 sec
     gradient                   ...        0 min,  0.003 sec
 * total energy  :   -27.7755979 Eh     change       -0.4133400E-02 Eh
   gradient norm :     0.0370547 Eh/α   predicted     0.0000000E+00 (-100.00%)
   displ. norm   :     0.6339073 α      lambda       -0.1011688E-01
   maximum displ.:     0.5642837 α      in ANC's #1, #5, #2, ...

........................................................................
.............................. CYCLE   22 ..............................
........................................................................

 iter      E             dE          RMSdq      gap      omega  full diag
   1    -28.0919274 -0.280919E+02  0.346E-01    1.69       0.0  T
   2    -28.0919722 -0.448148E-04  0.199E-01    1.67       1.0  T
   3    -28.0918919  0.802369E-04  0.153E-01    1.68       1.0  T
   4    -28.0920531 -0.161184E-03  0.399E-02    1.68       1.0  T
   5    -28.0920607 -0.756264E-05  0.242E-02    1.68       1.0  T
   6    -28.0920659 -0.524245E-05  0.101E-02    1.68       2.4  T
   7    -28.0920669 -0.997990E-06  0.273E-03    1.68       8.9  T
   8    -28.0920670 -0.285045E-07  0.157E-03    1.68      15.5  T
   9    -28.0920670 -0.667809E-08  0.561E-04    1.68      43.2  T
  10    -28.0920670 -0.941309E-09  0.267E-04    1.68      90.8  T
     SCC iter.                  ...        0 min,  0.816 sec
     gradient                   ...        0 min,  0.128 sec
 * total energy  :   -27.7846485 Eh     change       -0.9050586E-02 Eh
   gradient norm :     0.0240109 Eh/α   predicted    -0.7091099E-02 ( -21.65%)
   displ. norm   :     0.7388496 α      lambda       -0.9814456E-02
   maximum displ.:     0.6600637 α      in ANC's #1, #3, #7, ...

........................................................................
.............................. CYCLE   23 ..............................
........................................................................

 iter      E             dE          RMSdq      gap      omega  full diag
   1    -28.0943439 -0.280943E+02  0.458E-01    1.74       0.0  T
   2    -28.0942849  0.590743E-04  0.328E-01    1.71       1.0  T
   3    -28.0947930 -0.508096E-03  0.172E-01    1.73       1.0  T
   4    -28.0948943 -0.101304E-03  0.717E-02    1.72       1.0  T
   5    -28.0949614 -0.671527E-04  0.273E-02    1.72       1.0  T
   6    -28.0949647 -0.327273E-05  0.106E-02    1.72       2.3  T
   7    -28.0949654 -0.678779E-06  0.343E-03    1.72       7.1  T
   8    -28.0949654 -0.339972E-07  0.194E-03    1.72      12.5  T
   9    -28.0949654 -0.112844E-07  0.740E-04    1.72      32.8  T
  10    -28.0949654 -0.106101E-08  0.389E-04    1.72      62.4  T
     SCC iter.                  ...        0 min,  0.767 sec
     gradient                   ...        0 min,  0.027 sec
 * total energy  :   -27.7934730 Eh     change       -0.8824557E-02 Eh
   gradient norm :     0.0298750 Eh/α   predicted    -0.7586089E-02 ( -14.03%)
   displ. norm   :     0.7522186 α      lambda       -0.8921059E-02
   maximum displ.:     0.6984190 α      in ANC's #1, #7, #6, ...

........................................................................
.............................. CYCLE   24 ..............................
........................................................................

 iter      E             dE          RMSdq      gap      omega  full diag
   1    -28.0997719 -0.280998E+02  0.409E-01    1.77       0.0  T
   2    -28.0998407 -0.687652E-04  0.251E-01    1.74       1.0  T
   3    -28.0999952 -0.154526E-03  0.166E-01    1.76       1.0  T
   4    -28.1001140 -0.118795E-03  0.605E-02    1.75       1.0  T
   5    -28.1001523 -0.382774E-04  0.258E-02    1.75       1.0  T
   6    -28.1001562 -0.387039E-05  0.118E-02    1.75       2.1  T
   7    -28.1001574 -0.127487E-05  0.346E-03    1.75       7.0  T
   8    -28.1001575 -0.385573E-07  0.209E-03    1.75      11.6  T
   9    -28.1001575 -0.133884E-07  0.698E-04    1.75      34.7  T
  10    -28.1001575 -0.111144E-08  0.300E-04    1.75      80.8  T
     SCC iter.                  ...        0 min,  0.586 sec
     gradient                   ...        0 min,  0.054 sec
 * total energy  :   -27.8015355 Eh     change       -0.8062526E-02 Eh
   gradient norm :     0.0341894 Eh/α   predicted    -0.6984501E-02 ( -13.37%)
   displ. norm   :     0.8087002 α      lambda       -0.9189582E-02
   maximum displ.:     0.7563789 α      in ANC's #1, #7, #6, ...

........................................................................
.............................. CYCLE   25 ..............................
........................................................................

 iter      E             dE          RMSdq      gap      omega  full diag
   1    -28.1085898 -0.281086E+02  0.401E-01    1.82       0.0  T
   2    -28.1086896 -0.998800E-04  0.229E-01    1.78       1.0  T
   3    -28.1087376 -0.479557E-04  0.162E-01    1.80       1.0  T
   4    -28.1088708 -0.133187E-03  0.570E-02    1.79       1.0  T
   5    -28.1089012 -0.304360E-04  0.252E-02    1.79       1.0  T
   6    -28.1089046 -0.340875E-05  0.117E-02    1.79       2.1  T
   7    -28.1089061 -0.147524E-05  0.323E-03    1.79       7.5  T
   8    -28.1089061 -0.325330E-07  0.197E-03    1.79      12.3  T
   9    -28.1089062 -0.137627E-07  0.669E-04    1.79      36.2  T
  10    -28.1089062 -0.533799E-09  0.293E-04    1.79      82.9  T
     SCC iter.                  ...        0 min,  0.639 sec
     gradient                   ...        0 min,  0.070 sec
 * total energy  :   -27.8096331 Eh     change       -0.8097569E-02 Eh
   gradient norm :     0.0339279 Eh/α   predicted    -0.7599811E-02 (  -6.15%)
   displ. norm   :     0.7975785 α      lambda       -0.8362371E-02
   maximum displ.:     0.7220005 α      in ANC's #1, #7, #12, ...

........................................................................
.............................. CYCLE   26 ..............................
........................................................................

 iter      E             dE          RMSdq      gap      omega  full diag
   1    -28.1182151 -0.281182E+02  0.415E-01    1.82       0.0  T
   2    -28.1183348 -0.119789E-03  0.213E-01    1.79       1.0  T
   3    -28.1182014  0.133481E-03  0.135E-01    1.80       1.0  T
   4    -28.1183617 -0.160308E-03  0.573E-02    1.79       1.0  T
   5    -28.1183880 -0.262859E-04  0.238E-02    1.79       1.0  T
   6    -28.1183907 -0.277855E-05  0.104E-02    1.79       2.3  T
   7    -28.1183920 -0.124863E-05  0.335E-03    1.79       7.2  T
   8    -28.1183920 -0.178751E-07  0.224E-03    1.79      10.8  T
   9    -28.1183920 -0.199298E-07  0.772E-04    1.79      31.4  T
  10    -28.1183920 -0.213557E-08  0.189E-04    1.79     128.3  T
     SCC iter.                  ...        0 min,  0.614 sec
     gradient                   ...        0 min,  0.036 sec
 * total energy  :   -27.8165735 Eh     change       -0.6940349E-02 Eh
   gradient norm :     0.0327412 Eh/α   predicted    -0.6840953E-02 (  -1.43%)
   displ. norm   :     0.7693447 α      lambda       -0.8246063E-02
   maximum displ.:     0.6463736 α      in ANC's #1, #5, #12, ...

........................................................................
.............................. CYCLE   27 ..............................
........................................................................

 iter      E             dE          RMSdq      gap      omega  full diag
   1    -28.1290851 -0.281291E+02  0.526E-01    1.89       0.0  T
   2    -28.1292460 -0.160825E-03  0.329E-01    1.84       1.0  T
   3    -28.1296742 -0.428183E-03  0.175E-01    1.87       1.0  T
   4    -28.1297573 -0.831411E-04  0.802E-02    1.86       1.0  T
   5    -28.1298425 -0.852328E-04  0.321E-02    1.86       1.0  T
   6    -28.1298463 -0.379045E-05  0.101E-02    1.86       2.4  T
   7    -28.1298469 -0.591297E-06  0.240E-03    1.86      10.1  T
   8    -28.1298469 -0.138425E-07  0.147E-03    1.86      16.5  T
   9    -28.1298469 -0.509307E-08  0.765E-04    1.86      31.7  T
  10    -28.1298469 -0.189637E-08  0.243E-04    1.86      99.9  T
     SCC iter.                  ...        0 min,  0.509 sec
     gradient                   ...        0 min,  0.053 sec
 * total energy  :   -27.8220617 Eh     change       -0.5488197E-02 Eh
   gradient norm :     0.0691465 Eh/α   predicted    -0.6563414E-02 (  19.59%)
   displ. norm   :     0.7077116 α      lambda       -0.5900837E-02
   maximum displ.:     0.6311485 α      in ANC's #1, #5, #7, ...

........................................................................
.............................. CYCLE   28 ..............................
........................................................................

 iter      E             dE          RMSdq      gap      omega  full diag
   1    -28.1308400 -0.281308E+02  0.309E-01    1.83       0.0  T
   2    -28.1309320 -0.919827E-04  0.222E-01    1.84       1.0  T
   3    -28.1309763 -0.443738E-04  0.106E-01    1.82       1.0  T
   4    -28.1310218 -0.454704E-04  0.295E-02    1.83       1.0  T
   5    -28.1310218  0.791228E-08  0.109E-02    1.83       2.2  T
   6    -28.1310220 -0.195561E-06  0.535E-03    1.83       4.5  T
   7    -28.1310222 -0.244995E-06  0.295E-03    1.83       8.2  T
   8    -28.1310223 -0.748945E-07  0.145E-03    1.83      16.7  T
   9    -28.1310223 -0.126106E-07  0.483E-04    1.83      50.2  T
  10    -28.1310223 -0.131906E-08  0.132E-04    1.83     183.1  T
     SCC iter.                  ...        0 min,  0.596 sec
     gradient                   ...        0 min,  0.050 sec
 * total energy  :   -27.8265351 Eh     change       -0.4473487E-02 Eh
   gradient norm :     0.0241210 Eh/α   predicted    -0.4428200E-02 (  -1.01%)
   displ. norm   :     0.6680890 α      lambda       -0.4108042E-02
   maximum displ.:     0.5368283 α      in ANC's #1, #5, #12, ...

........................................................................
.............................. CYCLE   29 ..............................
........................................................................

 iter      E             dE          RMSdq      gap      omega  full diag
   1    -28.1341151 -0.281341E+02  0.410E-01    1.85       0.0  T
   2    -28.1342313 -0.116251E-03  0.200E-01    1.81       1.0  T
   3    -28.1343025 -0.711892E-04  0.145E-01    1.83       1.0  T
   4    -28.1343775 -0.749487E-04  0.461E-02    1.82       1.0  T
   5    -28.1343944 -0.169331E-04  0.237E-02    1.82       1.0  T
   6    -28.1343993 -0.484445E-05  0.693E-03    1.82       3.5  T
   7    -28.1343996 -0.373987E-06  0.254E-03    1.82       9.6  T
   8    -28.1343996 -0.538081E-08  0.142E-03    1.82      17.0  T
   9    -28.1343996 -0.864964E-08  0.415E-04    1.82      58.5  T
  10    -28.1343996 -0.285493E-09  0.169E-04    1.82     143.8  T
     SCC iter.                  ...        0 min,  0.495 sec
     gradient                   ...        0 min,  0.075 sec
 * total energy  :   -27.8293162 Eh     change       -0.2781063E-02 Eh
   gradient norm :     0.0272897 Eh/α   predicted    -0.2970822E-02 (   6.82%)
   displ. norm   :     0.6240882 α      lambda       -0.4004010E-02
   maximum displ.:     0.4558181 α      in ANC's #1, #5, #12, ...

........................................................................
.............................. CYCLE   30 ..............................
........................................................................

 iter      E             dE          RMSdq      gap      omega  full diag
   1    -28.1458640 -0.281459E+02  0.334E-01    1.84       0.0  T
   2    -28.1460503 -0.186295E-03  0.294E-01    1.86       1.0  T
   3    -28.1463841 -0.333718E-03  0.124E-01    1.85       1.0  T
   4    -28.1463507  0.333630E-04  0.511E-02    1.85       1.0  T
   5    -28.1463895 -0.387913E-04  0.207E-02    1.85       1.2  T
   6    -28.1463925 -0.298597E-05  0.535E-03    1.85       4.5  T
   7    -28.1463925 -0.604795E-07  0.157E-03    1.85      15.4  T
   8    -28.1463925 -0.584524E-08  0.102E-03    1.85      23.8  T
   9    -28.1463925 -0.364871E-08  0.463E-04    1.85      52.4  T
  10    -28.1463925 -0.517197E-09  0.168E-04    1.85     144.4  T
     SCC iter.                  ...        0 min,  0.488 sec
     gradient                   ...        0 min,  0.018 sec
 * total energy  :   -27.8312900 Eh     change       -0.1973795E-02 Eh
   gradient norm :     0.0329964 Eh/α   predicted    -0.2781744E-02 (  40.93%)
   displ. norm   :     0.5897513 α      lambda       -0.3659177E-02
   maximum displ.:     0.4860478 α      in ANC's #1, #12, #5, ...

........................................................................
.............................. CYCLE   31 ..............................
........................................................................

 iter      E             dE          RMSdq      gap      omega  full diag
   1    -28.1267414 -0.281267E+02  0.715E-01    1.81       0.0  T
   2    -28.1275909 -0.849443E-03  0.552E-01    1.76       1.0  T
   3    -28.1297370 -0.214610E-02  0.170E-01    1.78       1.0  T
   4    -28.1295648  0.172137E-03  0.124E-01    1.77       1.0  T
   5    -28.1298140 -0.249140E-03  0.400E-02    1.77       1.0  T
   6    -28.1298198 -0.580012E-05  0.921E-03    1.77       2.6  T
   7    -28.1298201 -0.382970E-06  0.448E-03    1.77       5.4  T
   8    -28.1298203 -0.174371E-06  0.153E-03    1.77      15.8  T
   9    -28.1298203 -0.329091E-08  0.548E-04    1.77      44.3  T
  10    -28.1298203 -0.634302E-09  0.168E-04    1.77     144.1  T
     SCC iter.                  ...        0 min,  0.787 sec
     gradient                   ...        0 min,  0.107 sec
 * total energy  :   -27.8307841 Eh     change        0.5058785E-03 Eh
   gradient norm :     0.0669499 Eh/α   predicted    -0.2465925E-02 (-587.45%)
   displ. norm   :     0.2003758 α      lambda       -0.4698049E-02
   maximum displ.:     0.1045121 α      in ANC's #3, #4, #9, ...

........................................................................
.............................. CYCLE   32 ..............................
........................................................................

 iter      E             dE          RMSdq      gap      omega  full diag
   1    -28.1360949 -0.281361E+02  0.281E-01    1.82       0.0  T
   2    -28.1361534 -0.584954E-04  0.280E-01    1.83       1.0  T
   3    -28.1367575 -0.604122E-03  0.965E-02    1.82       1.0  T
   4    -28.1366928  0.647298E-04  0.657E-02    1.82       1.0  T
   5    -28.1367660 -0.732254E-04  0.131E-02    1.82       1.9  T
   6    -28.1367671 -0.103899E-05  0.497E-03    1.82       4.9  T
   7    -28.1367672 -0.808656E-07  0.195E-03    1.82      12.4  T
   8    -28.1367672 -0.225464E-07  0.107E-03    1.82      22.6  T
   9    -28.1367672 -0.218317E-08  0.350E-04    1.82      69.2  T
  10    -28.1367672 -0.251845E-09  0.188E-04    1.82     129.1  T
     SCC iter.                  ...        0 min,  0.579 sec
     gradient                   ...        0 min,  0.094 sec
 * total energy  :   -27.8326485 Eh     change       -0.1864378E-02 Eh
   gradient norm :     0.0361138 Eh/α   predicted    -0.2443340E-02 (  31.05%)
   displ. norm   :     0.2182709 α      lambda       -0.2735900E-02
   maximum displ.:     0.1225584 α      in ANC's #1, #4, #3, ...

........................................................................
.............................. CYCLE   33 ..............................
........................................................................

 iter      E             dE          RMSdq      gap      omega  full diag
   1    -28.1576948 -0.281577E+02  0.236E-01    1.82       0.0  T
   2    -28.1578264 -0.131559E-03  0.192E-01    1.83       1.0  T
   3    -28.1579336 -0.107237E-03  0.951E-02    1.82       1.0  T
   4    -28.1579370 -0.333694E-05  0.195E-02    1.82       1.2  T
   5    -28.1579369  0.738001E-07  0.978E-03    1.82       2.5  T
   6    -28.1579369  0.241864E-08  0.585E-03    1.82       4.1  T
   7    -28.1579374 -0.552909E-06  0.235E-03    1.82      10.3  T
   8    -28.1579375 -0.343483E-07  0.135E-03    1.82      18.0  T
   9    -28.1579375 -0.616443E-08  0.349E-04    1.82      69.5  T
  10    -28.1579375 -0.317854E-09  0.126E-04    1.82     192.2  T
     SCC iter.                  ...        0 min,  0.668 sec
     gradient                   ...        0 min,  0.002 sec
 * total energy  :   -27.8316557 Eh     change        0.9927712E-03 Eh
   gradient norm :     0.0424271 Eh/α   predicted    -0.1433121E-02 (-244.36%)
   displ. norm   :     0.2250057 α      lambda       -0.3514011E-02
   maximum displ.:     0.1946917 α      in ANC's #1, #2, #3, ...

........................................................................
.............................. CYCLE   34 ..............................
........................................................................

 iter      E             dE          RMSdq      gap      omega  full diag
   1    -28.1426622 -0.281427E+02  0.184E-01    1.81       0.0  T
   2    -28.1427239 -0.616864E-04  0.131E-01    1.81       1.0  T
   3    -28.1427774 -0.535153E-04  0.665E-02    1.81       1.0  T
   4    -28.1427789 -0.145000E-05  0.193E-02    1.81       1.3  T
   5    -28.1427807 -0.188758E-05  0.122E-02    1.81       2.0  T
   6    -28.1427830 -0.227003E-05  0.372E-03    1.81       6.5  T
   7    -28.1427830 -0.143744E-07  0.151E-03    1.81      16.0  T
   8    -28.1427830 -0.123798E-07  0.793E-04    1.81      30.6  T
   9    -28.1427830 -0.151265E-08  0.214E-04    1.81     113.1  T
     SCC iter.                  ...        0 min,  0.363 sec
     gradient                   ...        0 min,  0.002 sec
 * total energy  :   -27.8334581 Eh     change       -0.1802392E-02 Eh
   gradient norm :     0.0109757 Eh/α   predicted    -0.1845960E-02 (   2.42%)
   displ. norm   :     0.1713231 α      lambda       -0.3873456E-03
   maximum displ.:     0.1117360 α      in ANC's #1, #12, #5, ...

........................................................................
.............................. CYCLE   35 ..............................
........................................................................

 iter      E             dE          RMSdq      gap      omega  full diag
   1    -28.1429226 -0.281429E+02  0.153E-01    1.81       0.0  T
   2    -28.1429524 -0.297595E-04  0.842E-02    1.80       1.0  T
   3    -28.1429845 -0.321454E-04  0.447E-02    1.80       1.0  T
   4    -28.1429885 -0.397330E-05  0.154E-02    1.80       1.6  T
   5    -28.1429905 -0.199843E-05  0.828E-03    1.80       2.9  T
   6    -28.1429911 -0.567919E-06  0.165E-03    1.80      14.7  T
   7    -28.1429911 -0.124672E-07  0.706E-04    1.80      34.4  T
   8    -28.1429911 -0.321483E-08  0.326E-04    1.80      74.3  T
     SCC iter.                  ...        0 min,  0.297 sec
     gradient                   ...        0 min,  0.002 sec
 * total energy  :   -27.8335907 Eh     change       -0.1325989E-03 Eh
   gradient norm :     0.0162545 Eh/α   predicted    -0.1993604E-03 (  50.35%)
   displ. norm   :     0.1977328 α      lambda       -0.3241390E-03
   maximum displ.:     0.1484233 α      in ANC's #1, #5, #12, ...

........................................................................
.............................. CYCLE   36 ..............................
........................................................................

 iter      E             dE          RMSdq      gap      omega  full diag
   1    -28.1424579 -0.281425E+02  0.996E-02    1.80       0.0  T
   2    -28.1424614 -0.354206E-05  0.437E-02    1.80       1.0  T
   3    -28.1424602  0.114944E-05  0.222E-02    1.80       1.1  T
   4    -28.1424626 -0.237084E-05  0.771E-03    1.80       3.1  T
   5    -28.1424627 -0.551464E-07  0.311E-03    1.80       7.8  T
   6    -28.1424628 -0.768630E-07  0.152E-03    1.80      16.0  T
   7    -28.1424628 -0.296182E-07  0.588E-04    1.80      41.2  T
   8    -28.1424628 -0.762967E-09  0.336E-04    1.80      72.1  T
     SCC iter.                  ...        0 min,  0.289 sec
     gradient                   ...        0 min,  0.102 sec
 * total energy  :   -27.8337514 Eh     change       -0.1606772E-03 Eh
   gradient norm :     0.0113038 Eh/α   predicted    -0.1684042E-03 (   4.81%)
   displ. norm   :     0.0674442 α      lambda       -0.2026040E-03
   maximum displ.:     0.0523175 α      in ANC's #2, #3, #1, ...

........................................................................
.............................. CYCLE   37 ..............................
........................................................................

 iter      E             dE          RMSdq      gap      omega  full diag
   1    -28.1434817 -0.281435E+02  0.549E-02    1.80       0.0  T
   2    -28.1434860 -0.428538E-05  0.447E-02    1.80       1.0  T
   3    -28.1434938 -0.780255E-05  0.216E-02    1.80       1.1  T
   4    -28.1434925  0.125761E-05  0.105E-02    1.80       2.3  T
   5    -28.1434945 -0.196248E-05  0.321E-03    1.80       7.6  T
   6    -28.1434945 -0.640438E-07  0.127E-03    1.80      19.1  T
   7    -28.1434946 -0.203404E-08  0.447E-04    1.80      54.3  T
   8    -28.1434946 -0.196491E-08  0.191E-04    1.80     127.0  T
     SCC iter.                  ...        0 min,  0.623 sec
     gradient                   ...        0 min,  0.079 sec
 * total energy  :   -27.8338165 Eh     change       -0.6511448E-04 Eh
   gradient norm :     0.0094747 Eh/α   predicted    -0.1017637E-03 (  56.28%)
   displ. norm   :     0.0728449 α      lambda       -0.1721336E-03
   maximum displ.:     0.0343356 α      in ANC's #1, #3, #5, ...

........................................................................
.............................. CYCLE   38 ..............................
........................................................................

 iter      E             dE          RMSdq      gap      omega  full diag
   1    -28.1455236 -0.281455E+02  0.544E-02    1.80       0.0  T
   2    -28.1455250 -0.138492E-05  0.316E-02    1.80       1.0  T
   3    -28.1455237  0.123558E-05  0.141E-02    1.80       1.7  T
   4    -28.1455254 -0.162489E-05  0.364E-03    1.80       6.7  T
   5    -28.1455254 -0.408924E-07  0.207E-03    1.80      11.7  T
   6    -28.1455255 -0.643296E-07  0.891E-04    1.80      27.2  T
   7    -28.1455255 -0.721610E-08  0.356E-04    1.80      68.1  T
     SCC iter.                  ...        0 min,  0.493 sec
     gradient                   ...        0 min,  0.051 sec
 * total energy  :   -27.8339024 Eh     change       -0.8592079E-04 Eh
   gradient norm :     0.0075413 Eh/α   predicted    -0.8652367E-04 (   0.70%)
   displ. norm   :     0.0632377 α      lambda       -0.1020496E-03
   maximum displ.:     0.0379518 α      in ANC's #1, #7, #11, ...

........................................................................
.............................. CYCLE   39 ..............................
........................................................................

 iter      E             dE          RMSdq      gap      omega  full diag
   1    -28.1442570 -0.281443E+02  0.620E-02    1.79       0.0  T
   2    -28.1442619 -0.487340E-05  0.346E-02    1.79       1.0  T
   3    -28.1442695 -0.764395E-05  0.186E-02    1.79       1.3  T
   4    -28.1442698 -0.338147E-06  0.902E-03    1.79       2.7  T
   5    -28.1442712 -0.137441E-05  0.324E-03    1.79       7.5  T
   6    -28.1442713 -0.327598E-07  0.915E-04    1.79      26.5  T
   7    -28.1442713 -0.364800E-08  0.396E-04    1.79      61.2  T
     SCC iter.                  ...        0 min,  0.367 sec
     gradient                   ...        0 min,  0.002 sec
 * total energy  :   -27.8339636 Eh     change       -0.6112668E-04 Eh
   gradient norm :     0.0046686 Eh/α   predicted    -0.5122769E-04 ( -16.19%)
   displ. norm   :     0.0846083 α      lambda       -0.7379809E-04
   maximum displ.:     0.0409983 α      in ANC's #2, #3, #5, ...

........................................................................
.............................. CYCLE   40 ..............................
........................................................................

 iter      E             dE          RMSdq      gap      omega  full diag
   1    -28.1424067 -0.281424E+02  0.492E-02    1.79       0.0  T
   2    -28.1424092 -0.259030E-05  0.260E-02    1.79       1.0  T
   3    -28.1424114 -0.214657E-05  0.159E-02    1.79       1.5  T
   4    -28.1424122 -0.771809E-06  0.374E-03    1.79       6.5  T
   5    -28.1424121  0.252890E-07  0.237E-03    1.79      10.2  T
   6    -28.1424122 -0.542954E-07  0.885E-04    1.79      27.4  T
   7    -28.1424122 -0.129542E-07  0.205E-04    1.79     118.2  T
     SCC iter.                  ...        0 min,  0.238 sec
     gradient                   ...        0 min,  0.090 sec
 * total energy  :   -27.8340112 Eh     change       -0.4766913E-04 Eh
   gradient norm :     0.0052436 Eh/α   predicted    -0.3716460E-04 ( -22.04%)
   displ. norm   :     0.1194710 α      lambda       -0.9673608E-04
   maximum displ.:     0.0746917 α      in ANC's #5, #2, #3, ...

........................................................................
.............................. CYCLE   41 ..............................
........................................................................

 iter      E             dE          RMSdq      gap      omega  full diag
   1    -28.1421996 -0.281422E+02  0.493E-02    1.79       0.0  T
   2    -28.1422010 -0.142596E-05  0.264E-02    1.79       1.0  T
   3    -28.1422007  0.318006E-06  0.164E-02    1.79       1.5  T
   4    -28.1422020 -0.128124E-05  0.408E-03    1.79       5.9  T
   5    -28.1422020 -0.686623E-08  0.155E-03    1.79      15.6  T
   6    -28.1422020 -0.173474E-07  0.785E-04    1.79      30.9  T
   7    -28.1422020 -0.480299E-08  0.438E-04    1.79      55.3  T
     SCC iter.                  ...        0 min,  0.585 sec
     gradient                   ...        0 min,  0.098 sec
 * total energy  :   -27.8340671 Eh     change       -0.5588271E-04 Eh
   gradient norm :     0.0056356 Eh/α   predicted    -0.4905871E-04 ( -12.21%)
   displ. norm   :     0.0972969 α      lambda       -0.7840789E-04
   maximum displ.:     0.0537608 α      in ANC's #5, #2, #3, ...

........................................................................
.............................. CYCLE   42 ..............................
........................................................................

 iter      E             dE          RMSdq      gap      omega  full diag
   1    -28.1420887 -0.281421E+02  0.347E-02    1.78       0.0  T
   2    -28.1420893 -0.536300E-06  0.232E-02    1.78       1.0  T
   3    -28.1420885  0.779541E-06  0.138E-02    1.78       1.8  T
   4    -28.1420900 -0.145943E-05  0.415E-03    1.78       5.8  T
   5    -28.1420902 -0.213090E-06  0.202E-03    1.78      12.0  T
   6    -28.1420902 -0.359677E-07  0.652E-04    1.78      37.2  T
   7    -28.1420902 -0.109178E-08  0.238E-04    1.78     101.7  T
     SCC iter.                  ...        0 min,  0.527 sec
     gradient                   ...        0 min,  0.085 sec
 * total energy  :   -27.8341200 Eh     change       -0.5293014E-04 Eh
   gradient norm :     0.0062494 Eh/α   predicted    -0.3957364E-04 ( -25.23%)
   displ. norm   :     0.1371465 α      lambda       -0.1070705E-03
   maximum displ.:     0.0825481 α      in ANC's #5, #2, #7, ...
 * RMSD in coord.:     1.7298390 α      energy gain  -0.6265557E-01 Eh

generating ANC from exact Hessian ...
Using Lindh-Hessian (1995)
 Shifting diagonal of input Hessian by    6.7404844142901401E-003
 Lowest  eigenvalues of input Hessian
    0.000000    0.000000    0.000000    0.000000    0.000000    0.000000
    0.010000    0.011427    0.012704    0.013440    0.015711    0.019134
    0.021909    0.031686    0.032845    0.050183    0.050862    0.068093
 Highest eigenvalues
    1.847479    1.945390    2.000716    2.079836    2.518124    3.766734


........................................................................
.............................. CYCLE   43 ..............................
........................................................................

 iter      E             dE          RMSdq      gap      omega  full diag
   1    -28.1432005 -0.281432E+02  0.624E-02    1.78       0.0  T
   2    -28.1432030 -0.245652E-05  0.330E-02    1.78       1.0  T
   3    -28.1432027  0.301007E-06  0.206E-02    1.78       1.2  T
   4    -28.1432048 -0.212793E-05  0.452E-03    1.78       5.4  T
   5    -28.1432048  0.693078E-09  0.225E-03    1.78      10.8  T
   6    -28.1432049 -0.412611E-07  0.517E-04    1.78      46.9  T
   7    -28.1432049 -0.212405E-08  0.359E-04    1.78      67.6  T
     SCC iter.                  ...        0 min,  0.656 sec
     gradient                   ...        0 min,  0.091 sec
 * total energy  :   -27.8341889 Eh     change       -0.6886249E-04 Eh
   gradient norm :     0.0062107 Eh/α   predicted     0.0000000E+00 (-100.00%)
   displ. norm   :     0.0526700 α      lambda       -0.1161468E-03
   maximum displ.:     0.0302446 α      in ANC's #7, #5, #2, ...

........................................................................
.............................. CYCLE   44 ..............................
........................................................................

 iter      E             dE          RMSdq      gap      omega  full diag
   1    -28.1441075 -0.281441E+02  0.543E-02    1.78       0.0  T
   2    -28.1441084 -0.948627E-06  0.299E-02    1.78       1.0  T
   3    -28.1441069  0.155821E-05  0.172E-02    1.78       1.4  T
   4    -28.1441091 -0.226434E-05  0.494E-03    1.78       4.9  T
   5    -28.1441092 -0.376015E-07  0.369E-03    1.78       6.6  T
   6    -28.1441093 -0.156589E-06  0.695E-04    1.78      34.9  T
   7    -28.1441093 -0.330957E-08  0.469E-04    1.78      51.7  T
     SCC iter.                  ...        0 min,  0.368 sec
     gradient                   ...        0 min,  0.072 sec
 * total energy  :   -27.8342620 Eh     change       -0.7311222E-04 Eh
   gradient norm :     0.0022396 Eh/α   predicted    -0.5823484E-04 ( -20.35%)
   displ. norm   :     0.0715397 α      lambda       -0.5342628E-04
   maximum displ.:     0.0415676 α      in ANC's #2, #7, #3, ...

........................................................................
.............................. CYCLE   45 ..............................
........................................................................

 iter      E             dE          RMSdq      gap      omega  full diag
   1    -28.1445432 -0.281445E+02  0.289E-02    1.78       0.0  T
   2    -28.1445434 -0.188479E-06  0.167E-02    1.78       1.5  T
   3    -28.1445418  0.157886E-05  0.995E-03    1.78       2.4  T
   4    -28.1445436 -0.174906E-05  0.238E-03    1.78      10.2  T
   5    -28.1445436 -0.497690E-07  0.115E-03    1.78      21.1  T
   6    -28.1445436 -0.910343E-08  0.374E-04    1.78      64.8  T
   7    -28.1445436 -0.336460E-09  0.167E-04    1.78     145.2  T
     SCC iter.                  ...        0 min,  0.494 sec
     gradient                   ...        0 min,  0.087 sec
 * total energy  :   -27.8342999 Eh     change       -0.3784011E-04 Eh
   gradient norm :     0.0016133 Eh/α   predicted    -0.2685005E-04 ( -29.04%)
   displ. norm   :     0.2074946 α      lambda       -0.6993461E-04
   maximum displ.:     0.1224622 α      in ANC's #2, #5, #3, ...

........................................................................
.............................. CYCLE   46 ..............................
........................................................................

 iter      E             dE          RMSdq      gap      omega  full diag
   1    -28.1442289 -0.281442E+02  0.732E-02    1.79       0.0  T
   2    -28.1442305 -0.161008E-05  0.392E-02    1.79       1.0  T
   3    -28.1442288  0.172746E-05  0.215E-02    1.79       1.1  T
   4    -28.1442316 -0.280349E-05  0.611E-03    1.79       4.0  T
   5    -28.1442314  0.186821E-06  0.365E-03    1.79       6.6  T
   6    -28.1442317 -0.284272E-06  0.892E-04    1.79      27.2  T
   7    -28.1442317 -0.612813E-08  0.534E-04    1.79      45.5  T
     SCC iter.                  ...        0 min,  0.647 sec
     gradient                   ...        0 min,  0.096 sec
 * total energy  :   -27.8343717 Eh     change       -0.7186731E-04 Eh
   gradient norm :     0.0051140 Eh/α   predicted    -0.3563471E-04 ( -50.42%)
   displ. norm   :     0.1846691 α      lambda       -0.8548742E-04
   maximum displ.:     0.1036314 α      in ANC's #2, #5, #3, ...

........................................................................
.............................. CYCLE   47 ..............................
........................................................................

 iter      E             dE          RMSdq      gap      omega  full diag
   1    -28.1432622 -0.281433E+02  0.469E-02    1.79       0.0  T
   2    -28.1432626 -0.412397E-06  0.275E-02    1.79       1.0  T
   3    -28.1432614  0.122759E-05  0.106E-02    1.79       2.3  T
   4    -28.1432627 -0.132279E-05  0.339E-03    1.79       7.1  T
   5    -28.1432628 -0.926515E-07  0.178E-03    1.79      13.6  T
   6    -28.1432628 -0.325124E-07  0.458E-04    1.79      52.9  T
   7    -28.1432628 -0.161209E-08  0.221E-04    1.79     109.7  T
     SCC iter.                  ...        0 min,  0.477 sec
     gradient                   ...        0 min,  0.101 sec
 * total energy  :   -27.8344400 Eh     change       -0.6825859E-04 Eh
   gradient norm :     0.0056334 Eh/α   predicted    -0.4420069E-04 ( -35.25%)
   displ. norm   :     0.2912592 α      lambda       -0.1418106E-03
   maximum displ.:     0.1756731 α      in ANC's #5, #2, #3, ...

........................................................................
.............................. CYCLE   48 ..............................
........................................................................

 iter      E             dE          RMSdq      gap      omega  full diag
   1    -28.1413326 -0.281413E+02  0.743E-02    1.79       0.0  T
   2    -28.1413339 -0.137308E-05  0.437E-02    1.78       1.0  T
   3    -28.1413332  0.777592E-06  0.108E-02    1.79       2.2  T
   4    -28.1413341 -0.958963E-06  0.410E-03    1.78       5.9  T
   5    -28.1413342 -0.752875E-07  0.198E-03    1.78      12.2  T
   6    -28.1413342 -0.326064E-07  0.103E-03    1.79      23.5  T
   7    -28.1413342 -0.146309E-07  0.326E-04    1.79      74.4  T
   8    -28.1413342 -0.325311E-09  0.177E-04    1.79     137.1  T
     SCC iter.                  ...        0 min,  0.630 sec
     gradient                   ...        0 min,  0.100 sec
 * total energy  :   -27.8345065 Eh     change       -0.6653336E-04 Eh
   gradient norm :     0.0078495 Eh/α   predicted    -0.7692111E-04 (  15.61%)
   displ. norm   :     0.0377096 α      lambda       -0.1350334E-03
   maximum displ.:     0.0183536 α      in ANC's #7, #4, #5, ...

........................................................................
.............................. CYCLE   49 ..............................
........................................................................

 iter      E             dE          RMSdq      gap      omega  full diag
   1    -28.1438280 -0.281438E+02  0.378E-02    1.78       0.0  T
   2    -28.1438292 -0.115368E-05  0.197E-02    1.78       1.2  T
   3    -28.1438288  0.345127E-06  0.968E-03    1.78       2.5  T
   4    -28.1438294 -0.571685E-06  0.316E-03    1.78       7.7  T
   5    -28.1438295 -0.422434E-07  0.178E-03    1.78      13.6  T
   6    -28.1438295 -0.247669E-07  0.776E-04    1.78      31.3  T
   7    -28.1438295 -0.795141E-08  0.270E-04    1.78      89.9  T
     SCC iter.                  ...        0 min,  0.537 sec
     gradient                   ...        0 min,  0.092 sec
 * total energy  :   -27.8345858 Eh     change       -0.7932764E-04 Eh
   gradient norm :     0.0034502 Eh/α   predicted    -0.6761276E-04 ( -14.77%)
   displ. norm   :     0.1406892 α      lambda       -0.6434464E-04
   maximum displ.:     0.1003718 α      in ANC's #5, #2, #3, ...

........................................................................
.............................. CYCLE   50 ..............................
........................................................................

 iter      E             dE          RMSdq      gap      omega  full diag
   1    -28.1439664 -0.281440E+02  0.390E-02    1.78       0.0  T
   2    -28.1439668 -0.331101E-06  0.222E-02    1.78       1.1  T
   3    -28.1439660  0.786924E-06  0.960E-03    1.78       2.5  T
   4    -28.1439668 -0.839430E-06  0.359E-03    1.78       6.8  T
   5    -28.1439669 -0.110796E-06  0.152E-03    1.78      16.0  T
   6    -28.1439670 -0.291512E-07  0.368E-04    1.78      65.9  T
   7    -28.1439670 -0.159322E-08  0.955E-05    1.78     254.1  T
     SCC iter.                  ...        0 min,  0.506 sec
     gradient                   ...        0 min,  0.096 sec
 * total energy  :   -27.8346372 Eh     change       -0.5136916E-04 Eh
   gradient norm :     0.0039834 Eh/α   predicted    -0.3280697E-04 ( -36.13%)
   displ. norm   :     0.2495261 α      lambda       -0.9285793E-04
   maximum displ.:     0.1767035 α      in ANC's #5, #2, #3, ...

........................................................................
.............................. CYCLE   51 ..............................
........................................................................

 iter      E             dE          RMSdq      gap      omega  full diag
   1    -28.1430614 -0.281431E+02  0.672E-02    1.78       0.0  T
[...]
 total RMSD          :         2.5646151 a0        1.3571 Å
 total power (kW/mol):       -61.5126398 (step)  -92.8553 (real)
------------------------------------------------------------------------

 ANCopt (total)                0 d,  0 h,  0 min, 40.410 sec
 optimizer setup                ...        0 min,  0.001 sec (  0.002%)
 model hessian                  ...        0 min,  0.010 sec (  0.025%)
 ANC generation                 ...        0 min,  0.002 sec (  0.004%)
 coordinate transformation      ...        0 min,  0.001 sec (  0.002%)
 single point calculation       ...        0 min, 40.092 sec ( 99.213%)
 optimization log               ...        0 min,  0.029 sec (  0.072%)
 hessian update                 ...        0 min,  0.217 sec (  0.537%)
 rational function              ...        0 min,  0.032 sec (  0.079%)

================
 final structure:
================
17
 xtb: 6.7.1 (edcfbbe)
C           -1.55952537051916       -1.04043373609836       -1.07562313308361
C           -0.89524763229928       -0.09367334973129       -0.16817358322450
C           -1.15429736559996        1.16224499994792        0.32329169467586
C            0.00446046648592        1.87566844740078        0.64168837632731
N            1.14320074183063        1.32871578194463        0.25829343434125
N            0.97192545852923        0.11615880305794       -0.18017862438121
C            1.88152928705137       -0.49721257823114       -1.09463400291872
S            0.28764308707778       -1.16128126873737        1.32924772074745
O            0.28082235411468       -0.29892769985565        2.50333688362304
H           -0.89157478775162       -1.85694124233311       -1.34146321892281
H           -2.43588585283255       -1.46829150094430       -0.58630265024863
H           -1.87974873275329       -0.53558594819022       -1.98862653160892
H           -2.13572293241844        1.58552602283057        0.42029233577629
H            0.03037900411123        2.85491309905284        1.08087650985121
H            1.89875995672096        0.05231175064804       -2.03888578020779
H            1.56709064488640       -1.52285766044650       -1.27566255028775
H            2.88619167335241       -0.50033292032604       -0.66747088045831

 Bond Distances (Angstroems)
 ---------------------------
C1-C2=1.4701         C1-H10=1.0879        C1-H11=1.0911        C1-H12=1.0913        C2-C1=1.4701         C2-C3=1.3733         
C2-N6=1.8790         C2-S8=2.1866         C3-C2=1.3733         C3-C4=1.3975         C3-H13=1.0732        C4-C3=1.3975         
C4-N5=1.3202         C4-H14=1.0735        N5-C4=1.3202         N5-N6=1.3007         N6-C2=1.8790         N6-N5=1.3007         
N6-C7=1.4282         N6-S8=2.0925         C7-N6=1.4282         C7-H15=1.0927        C7-H16=1.0879        C7-H17=1.0917        
S8-C2=2.1866         S8-N6=2.0925         S8-O9=1.4568         O9-S8=1.4568         H10-C1=1.0879        H11-C1=1.0911        
H12-C1=1.0913        H13-C3=1.0732        H14-C4=1.0735        H15-C7=1.0927        H16-C7=1.0879        H17-C7=1.0917        
 C  H  Rav=1.0862 sigma=0.0076  Rmin=1.0732  Rmax=1.0927     8
 C  C  Rav=1.4136 sigma=0.0411  Rmin=1.3733  Rmax=1.4701     3
 N  C  Rav=1.5425 sigma=0.2420  Rmin=1.3202  Rmax=1.8790     3
 N  N  Rav=1.3007 sigma=0.0000  Rmin=1.3007  Rmax=1.3007     1
 S  C  Rav=2.1866 sigma=0.0000  Rmin=2.1866  Rmax=2.1866     1
 S  N  Rav=2.0925 sigma=0.0000  Rmin=2.0925  Rmax=2.0925     1
 S  O  Rav=1.4568 sigma=0.0000  Rmin=1.4568  Rmax=1.4568     1

 selected bond angles (degree)
 --------------------
H10-C1-C2=110.90               H11-C1-C2=109.79               H11-C1-H10=107.96              H12-C1-C2=110.55               
H12-C1-H10=108.84              H12-C1-H11=108.72              C3-C2-C1=136.44                N6-C2-C1=121.13                
N6-C2-C3= 95.03                S8-C2-C1=110.65                S8-C2-C3=107.67                S8-C2-N6= 61.40                
C4-C3-C2=113.08                H13-C3-C2=124.44               H13-C3-C4=122.43               N5-C4-C3=115.95                
H14-C4-C3=125.37               H14-C4-N5=118.42               N6-N5-C4=111.75                N5-N6-C2=103.46                
C7-N6-C2=126.09                C7-N6-N5=122.16                S8-N6-C2= 66.56                S8-N6-N5=111.65                
S8-N6-C7=114.08                H15-C7-N6=110.33               H16-C7-N6=109.11               H16-C7-H15=109.57              
H17-C7-N6=109.68               H17-C7-H15=108.97              H17-C7-H16=109.17              N6-S8-C2= 52.04                
O9-S8-C2=105.09                O9-S8-N6=102.80                

 selected dihedral angles (degree)
 ---------------------------------
C3-C2-C1-H10=168.62           C3-C2-C1-H11=287.85           C3-C2-C1-H12= 47.80           N6-C2-C1-H10= 27.03           
N6-C2-C1-H11=146.26           N6-C2-C1-H12=266.20           S8-C2-C1-H10=318.74           S8-C2-C1-H11= 77.97           
S8-C2-C1-H12=197.92           C4-C3-C2-C1=207.95            C4-C3-C2-N6=355.69            C4-C3-C2-S8= 57.24            
H13-C3-C2-C1= 25.44           H13-C3-C2-N6=173.17           H13-C3-C2-S8=234.73           N5-C4-C3-C2=  9.01            
N5-C4-C3-H13=191.47           H14-C4-C3-C2=182.99           H14-C4-C3-H13=  5.45          N6-N5-C4-C3=350.60            
N6-N5-C4-H14=176.19           C2-N6-N5-C4=  5.59            C7-N6-N5-C4=155.59            S8-N6-N5-C4=295.77            
H15-C7-N6-C2= 80.33           H15-C7-N6-N5=297.33           H15-C7-N6-S8=158.01           H16-C7-N6-C2=319.92           
H16-C7-N6-N5=176.92           H16-C7-N6-S8= 37.59           H17-C7-N6-C2=200.38           H17-C7-N6-N5= 57.38           
H17-C7-N6-S8=278.05           N6-S8-C2-C1=115.07            N6-S8-C2-C3=273.95            O9-S8-C2-C1=209.70            
O9-S8-C2-C3=  8.58            O9-S8-C2-N6= 94.62            C2-S8-N6-N5= 95.79            C2-S8-N6-C7=239.37            
O9-S8-N6-C2=260.71            O9-S8-N6-N5=356.50            O9-S8-N6-C7=140.08            
           -------------------------------------------------
          |                Final Singlepoint                |
           -------------------------------------------------

          ...................................................
          :                      SETUP                      :
          :.................................................:
          :  # basis functions                  50          :
          :  # atomic orbitals                  49          :
          :  # shells                           27          :
          :  # electrons                        50          :
          :  max. iterations                   250          :
          :  Hamiltonian                  GFN2-xTB          :
          :  restarted?                      false          :
          :  GBSA solvation                  false          :
          :  PC potential                    false          :
          :  electronic temp.          300.0000000     K    :
          :  accuracy                    1.0000000          :
          :  -> integral cutoff          0.2500000E+02      :
          :  -> integral neglect         0.1000000E-07      :
          :  -> SCF convergence          0.1000000E-05 Eh   :
          :  -> wf. convergence          0.1000000E-03 e    :
          :  Broyden damping             0.4000000          :
          :  net charge                          0          :
          :  unpaired electrons                  0          :
          ...................................................

 iter      E             dE          RMSdq      gap      omega  full diag
   1    -28.1448315 -0.281448E+02  0.561E-05    1.77       0.0  T
   2    -28.1448315 -0.443023E-11  0.356E-05    1.77     680.8  T
   3    -28.1448315 -0.223466E-11  0.288E-05    1.77     843.5  T

   *** convergence criteria satisfied after 3 iterations ***

         #    Occupation            Energy/Eh            Energy/eV
      -------------------------------------------------------------
         1        2.0000           -0.7370190             -20.0553
       ...           ...                  ...                  ...
        19        2.0000           -0.4713348             -12.8257
        20        2.0000           -0.4622620             -12.5788
        21        2.0000           -0.4566912             -12.4272
        22        2.0000           -0.4211140             -11.4591
        23        2.0000           -0.4030101             -10.9665
        24        2.0000           -0.3809481             -10.3661
        25        2.0000           -0.3358038              -9.1377 (HOMO)
        26                         -0.2709358              -7.3725 (LUMO)
        27                         -0.2421834              -6.5901
        28                         -0.2233757              -6.0784
        29                         -0.1573145              -4.2807
        30                         -0.1344976              -3.6599
       ...                                ...                  ...
        49                          0.8946556              24.3448
      -------------------------------------------------------------
                  HL-Gap            0.0648680 Eh            1.7651 eV
             Fermi-level           -0.3033698 Eh           -8.2551 eV

 SCC (total)                   0 d,  0 h,  0 min,  0.103 sec
 SCC setup                      ...        0 min,  0.000 sec (  0.100%)
 Dispersion                     ...        0 min,  0.000 sec (  0.057%)
 classical contributions        ...        0 min,  0.000 sec (  0.012%)
 integral evaluation            ...        0 min,  0.001 sec (  0.677%)
 iterations                     ...        0 min,  0.099 sec ( 96.440%)
 molecular gradient             ...        0 min,  0.002 sec (  1.969%)
 printout                       ...        0 min,  0.001 sec (  0.716%)

         :::::::::::::::::::::::::::::::::::::::::::::::::::::
         ::                     SUMMARY                     ::
         :::::::::::::::::::::::::::::::::::::::::::::::::::::
         :: total energy             -27.834810364946 Eh    ::
         :: gradient norm              0.000590748669 Eh/a0 ::
         :: HOMO-LUMO gap              1.765149435018 eV    ::
         ::.................................................::
         :: SCC energy               -28.144754089896 Eh    ::
         :: -> isotropic ES            0.039522973271 Eh    ::
         :: -> anisotropic ES         -0.002661884102 Eh    ::
         :: -> anisotropic XC          0.015822732637 Eh    ::
         :: -> dispersion             -0.015794243290 Eh    ::
         :: repulsion energy           0.308732800581 Eh    ::
         :: add. restraining           0.001210924370 Eh    ::
         :: total charge              -0.000000000000 e     ::
         :::::::::::::::::::::::::::::::::::::::::::::::::::::

           -------------------------------------------------
          |                Property Printout                |
           -------------------------------------------------

    * Orbital Energies and Occupations

         #    Occupation            Energy/Eh            Energy/eV
      -------------------------------------------------------------
         1        2.0000           -0.7370190             -20.0553
       ...           ...                  ...                  ...
        13        2.0000           -0.5124751             -13.9452
        14        2.0000           -0.5073138             -13.8047
        15        2.0000           -0.5028885             -13.6843
        16        2.0000           -0.4927292             -13.4078
        17        2.0000           -0.4887704             -13.3001
        18        2.0000           -0.4843773             -13.1806
        19        2.0000           -0.4713348             -12.8257
        20        2.0000           -0.4622620             -12.5788
        21        2.0000           -0.4566912             -12.4272
        22        2.0000           -0.4211140             -11.4591
        23        2.0000           -0.4030101             -10.9665
        24        2.0000           -0.3809481             -10.3661
        25        2.0000           -0.3358038              -9.1377 (HOMO)
        26                         -0.2709358              -7.3725 (LUMO)
        27                         -0.2421834              -6.5901
        28                         -0.2233757              -6.0784
        29                         -0.1573145              -4.2807
        30                         -0.1344976              -3.6599
        31                          0.0084794               0.2307
        32                          0.0467823               1.2730
        33                          0.0581456               1.5822
        34                          0.0889417               2.4202
        35                          0.1060561               2.8859
        36                          0.1137719               3.0959
       ...                                ...                  ...
        49                          0.8946556              24.3448
      -------------------------------------------------------------
                  HL-Gap            0.0648680 Eh            1.7651 eV
             Fermi-level           -0.3033698 Eh           -8.2551 eV

     #   Z          covCN         q      C6AA      α(0)
     1   6 C        3.753    -0.107    22.603     6.779
     2   6 C        3.358     0.010    24.881     7.838
     3   6 C        2.921    -0.070    29.740     8.943
     4   6 C        2.967     0.050    26.883     8.505
     5   7 N        1.928    -0.184    25.795     7.531
     6   7 N        3.348     0.029    20.737     6.763
     7   6 C        3.692    -0.056    21.763     6.675
     8  16 S        2.406     0.229   132.052    19.341
     9   8 O        0.860    -0.409    21.853     6.268
    10   1 H        0.925     0.061     2.189     2.314
    11   1 H        0.924     0.069     2.097     2.264
    12   1 H        0.924     0.061     2.189     2.314
    13   1 H        0.926     0.052     2.299     2.371
    14   1 H        0.926     0.047     2.352     2.398
    15   1 H        0.924     0.070     2.081     2.256
    16   1 H        0.925     0.067     2.114     2.274
    17   1 H        0.924     0.080     1.976     2.198

 Mol. C6AA /au·bohr⁶  :       3898.850346
 Mol. C8AA /au·bohr⁸  :     103292.439718
 Mol. α(0) /au        :         97.031749


Wiberg/Mayer (AO) data.
largest (>0.10) Wiberg bond orders for each atom

 ---------------------------------------------------------------------------
     #   Z sym  total        # sym  WBO       # sym  WBO       # sym  WBO
 ---------------------------------------------------------------------------
     1   6 C    3.995 --     2 C    1.056    10 H    0.971    12 H    0.964
                            11 H    0.957
     2   6 C    3.935 --     3 C    1.435     1 C    1.056     6 N    0.575
                             8 S    0.553     5 N    0.156
     3   6 C    3.976 --     2 C    1.435     4 C    1.368    13 H    0.945
                             8 S    0.101
     4   6 C    3.977 --     5 N    1.428     3 C    1.368    14 H    0.966
     5   7 N    3.127 --     4 C    1.428     6 N    1.274     2 C    0.156
                             8 S    0.152
     6   7 N    3.659 --     5 N    1.274     7 C    1.013     2 C    0.575
                             8 S    0.543
     7   6 C    3.968 --     6 N    1.013    16 H    0.976    15 H    0.967
                            17 H    0.964
     8  16 S    3.359 --     9 O    1.863     2 C    0.553     6 N    0.543
                             5 N    0.152     3 C    0.101
     9   8 O    2.149 --     8 S    1.863
    10   1 H    0.996 --     1 C    0.971
    11   1 H    0.995 --     1 C    0.957
    12   1 H    0.996 --     1 C    0.964
    13   1 H    0.996 --     3 C    0.945
    14   1 H    0.997 --     4 C    0.966
    15   1 H    0.995 --     7 C    0.967
    16   1 H    0.995 --     7 C    0.976
    17   1 H    0.992 --     7 C    0.964
 ---------------------------------------------------------------------------

Topologies differ in total number of bonds
Writing topology from bond orders to xtbtopo.mol

molecular dipole:
                 x           y           z       tot (Debye)
 q only:       -0.135      -0.763      -1.967
   full:       -0.377      -0.696      -1.840       5.092
molecular quadrupole (traceless):
                xx          xy          yy          xz          yz          zz
 q only:        5.277      -2.021       3.884      -2.703       2.029      -9.161
  q+dip:        5.703      -3.262       3.243      -2.434       2.261      -8.946
   full:        4.901      -3.300       3.030      -2.671       1.521      -7.931

           -------------------------------------------------
          |                Geometry Summary                 |
           -------------------------------------------------

      molecular mass/u    :      144.1948042
   center of mass at/Å    :        0.1503421      -0.0436150       0.4218175
  moments of inertia/u·Å² :        0.3197677E+03   0.3376699E+03   0.3493854E+03
rotational constants/cm⁻¹ :        0.5271836E-01   0.4992341E-01   0.4824939E-01

 * 15 selected distances

     #   Z          #   Z                                           value/Å
     1   6 C        2   6 C                                       1.4700630 (max)
     2   6 C        3   6 C                                       1.3733085
     3   6 C        4   6 C                                       1.3975226
     4   6 C        5   7 N                                       1.3201813
     5   7 N        6   7 N                                       1.3007258
     6   7 N        7   6 C                                       1.4282271
     8  16 S        9   8 O                                       1.4567724
     1   6 C       10   1 H                                       1.0878941
     1   6 C       11   1 H                                       1.0911025
     1   6 C       12   1 H                                       1.0913248
     3   6 C       13   1 H                                       1.0732066 (min)
     4   6 C       14   1 H                                       1.0735354
     7   6 C       15   1 H                                       1.0926507
     7   6 C       16   1 H                                       1.0879297
     7   6 C       17   1 H                                       1.0917073

 * 5 distinct bonds (by element types)

   Z      Z             #   av. dist./Å        max./Å        min./Å
   1 H    6 C           8     1.0861689     1.0926507     1.0732066
   6 C    6 C           3     1.4136314     1.4700630     1.3733085
   6 C    7 N           2     1.3742042     1.4282271     1.3201813
   7 N    7 N           1     1.3007258     1.3007258     1.3007258
   8 O   16 S           1     1.4567724     1.4567724     1.4567724


optimized geometry written to: xtbopt.xyz


           -------------------------------------------------
          | TOTAL ENERGY              -27.834810364946 Eh   |
          | GRADIENT NORM               0.000590748669 Eh/α |
          | HOMO-LUMO GAP               1.765149435018 eV   |
           -------------------------------------------------

------------------------------------------------------------------------
 * finished run on 2026/01/15 at 10:09:38.314     
------------------------------------------------------------------------
 total:
 * wall-time:     0 d,  0 h,  0 min, 41.469 sec
 *  cpu-time:     0 d,  0 h,  4 min, 13.255 sec
 * ratio c/w:     6.107 speedup
 SCF:
 * wall-time:     0 d,  0 h,  0 min,  0.784 sec
 *  cpu-time:     0 d,  0 h,  0 min,  4.407 sec
 * ratio c/w:     5.624 speedup
 ANC optimizer:
 * wall-time:     0 d,  0 h,  0 min, 40.533 sec
 *  cpu-time:     0 d,  0 h,  4 min,  8.027 sec
 * ratio c/w:     6.119 speedup

