17
 energy: -27.831257634712 gnorm: 0.000957201400 xtb: 6.7.1 (edcfbbe)
C           -2.60918036995371       -0.99494279407066       -0.42714684061197
C           -1.44896746262073       -0.09849428047387       -0.38550696403321
C           -1.25147697968855        1.12015630405841        0.08265853099724
C           -0.00952500094167        1.84130837231445        0.21901001540170
N            1.18347647954228        1.44056405887938       -0.00382344207400
N            1.63035036684930        0.46610149710827       -0.68516053164950
C            2.86838328277695       -0.14150083989458       -0.29046630659439
S            0.33889031367311       -1.19636290294998       -1.28008728041188
O            0.62554597549871       -2.29584883612256       -0.36840772064761
H           -2.93811646135351       -1.15272944543113       -1.45484363754675
H           -2.33680343196082       -1.96508234991687       -0.01068744310777
H           -3.43914272565883       -0.58509494343307        0.15061706351153
H           -2.10996357307182        1.64721095388071        0.49575485704168
H           -0.06300975010713        2.82059362654734        0.67502741569352
H            3.47009111309425        0.57086849461810        0.27422895159494
H            3.40369715044273       -0.45435256392684       -1.18683289028717
H            2.68575107348579       -1.02239335118012        0.33567222272180
