      -----------------------------------------------------------      
     |                   =====================                   |     
     |                           x T B                           |     
     |                   =====================                   |     
     |                         S. Grimme                         |     
     |          Mulliken Center for Theoretical Chemistry        |     
     |                    University of Bonn                     |     
      -----------------------------------------------------------      

   * xtb version 6.7.1 (edcfbbe) compiled by 'conda@c0858423619e' on 2025-09-04

   xtb is free software: you can redistribute it and/or modify it under
   the terms of the GNU Lesser General Public License as published by
   the Free Software Foundation, either version 3 of the License, or
   (at your option) any later version.
   
   xtb is distributed in the hope that it will be useful,
   but WITHOUT ANY WARRANTY; without even the implied warranty of
   MERCHANTABILITY or FITNESS FOR A PARTICULAR PURPOSE.  See the
   GNU Lesser General Public License for more details.
   
   Cite this work as:
   * C. Bannwarth, E. Caldeweyher, S. Ehlert, A. Hansen, P. Pracht,
     J. Seibert, S. Spicher, S. Grimme, WIREs Comput. Mol. Sci., 2020, 11,
     e01493. DOI: 10.1002/wcms.1493
   
   for GFN2-xTB:
   * C. Bannwarth, S. Ehlert and S. Grimme., J. Chem. Theory Comput., 2019,
     15, 1652-1671. DOI: 10.1021/acs.jctc.8b01176
   for GFN1-xTB:
   * S. Grimme, C. Bannwarth, P. Shushkov, J. Chem. Theory Comput., 2017,
     13, 1989-2009. DOI: 10.1021/acs.jctc.7b00118
   for GFN0-xTB:
   * P. Pracht, E. Caldeweyher, S. Ehlert, S. Grimme, ChemRxiv, 2019, preprint.
     DOI: 10.26434/chemrxiv.8326202.v1
   for GFN-FF:
   * S. Spicher and S. Grimme, Angew. Chem. Int. Ed., 2020, 59, 15665-15673.
     DOI: 10.1002/anie.202004239
   
   for ALPB and GBSA implicit solvation:
   * S. Ehlert, M. Stahn, S. Spicher, S. Grimme, J. Chem. Theory Comput.,
     2021, 17, 4250-4261. DOI: 10.1021/acs.jctc.1c00471
   
   for ddCOSMO and CPCM-X implicit solvation:
   * M. Stahn, S. Ehlert, S. Grimme, J. Phys. Chem. A,
     2023, XX, XXXX-XXXX. DOI: 10.1021/acs.jpca.3c04382
   
   for DFT-D4:
   * E. Caldeweyher, C. Bannwarth and S. Grimme, J. Chem. Phys., 2017,
     147, 034112. DOI: 10.1063/1.4993215
   * E. Caldeweyher, S. Ehlert, A. Hansen, H. Neugebauer, S. Spicher,
     C. Bannwarth and S. Grimme, J. Chem. Phys., 2019, 150, 154122.
     DOI: 10.1063/1.5090222
   * E. Caldeweyher, J.-M. Mewes, S. Ehlert and S. Grimme, Phys. Chem. Chem. Phys.
     2020, 22, 8499-8512. DOI: 10.1039/D0CP00502A
   
   for sTDA-xTB:
   * S. Grimme and C. Bannwarth, J. Chem. Phys., 2016, 145, 054103.
     DOI: 10.1063/1.4959605
   
   in the mass-spec context:
   * V. Asgeirsson, C. Bauer and S. Grimme, Chem. Sci., 2017, 8, 4879.
     DOI: 10.1039/c7sc00601b
   * J. Koopman and S. Grimme, ACS Omega 2019, 4, 12, 15120-15133.
     DOI: 10.1021/acsomega.9b02011
   
   for metadynamics refer to:
   * S. Grimme, J. Chem. Theory Comput., 2019, 155, 2847-2862
     DOI: 10.1021/acs.jctc.9b00143
   
   for SPH calculations refer to:
   * S. Spicher and S. Grimme, J. Chem. Theory Comput., 2021, 17, 1701-1714
     DOI: 10.1021/acs.jctc.0c01306
   
   for ONIOM refer to:
   * C. Plett, A. Katbashev, S. Ehlert, S. Grimme, M. Bursch,
     Phys. Chem. Chem. Phys., 2023, 25, 17860-17868. DOI: 10.1039/D3CP02178E
   
   for DIPRO refer to:
   * J. Kohn, N. Gildemeister, S. Grimme, D. Fazzi, A. Hansen,
     J. Chem. Phys., 2023, just accepted.
   
   for PTB refer to:
   * S. Grimme, M. Mueller, A. Hansen, J. Chem. Phys., 2023, 158, 124111.
     DOI: 10.1063/5.0137838
   
   with help from (in alphabetical order)
   P. Atkinson, C. Bannwarth, F. Bohle, G. Brandenburg, E. Caldeweyher
   M. Checinski, S. Dohm, S. Ehlert, S. Ehrlich, I. Gerasimov, C. Hölzer
   A. Katbashev, J. Kohn, J. Koopman, C. Lavigne, S. Lehtola, F. März, M. Müller,
   F. Musil, H. Neugebauer, J. Pisarek, C. Plett, P. Pracht, F. Pultar,
   J. Seibert, P. Shushkov, S. Spicher, M. Stahn, M. Steiner, T. Strunk,
   J. Stückrath, T. Rose, and J. Unsleber
   
 * started run on 2026/01/15 at 09:09:33.575     
   ID    Z sym.   atoms
    1    6 C      1-4, 6
    2    7 N      5, 7
    3   16 S      8
    4    8 O      9
    5    1 H      10-18
constraining bond 8 2 to    2.3000000 Å, actual value:    1.7683859 Å
constraining bond 8 7 to    2.2000000 Å, actual value:    1.7451647 Å

           -------------------------------------------------
          |                Calculation Setup                |
           -------------------------------------------------

          program call               : /h/28/cicsy/miniforge3/envs/elagente/bin/xtb N4-Me_TDSO_pathwayB.xyz --opt --gfn 2 -P 4 --chrg 0 --input detailed_input.inp
          coordinate file            : N4-Me_TDSO_pathwayB.xyz
          omp threads                :                     4


           -------------------------------------------------
          |                 G F N 2 - x T B                 |
           -------------------------------------------------

        Reference                      10.1021/acs.jctc.8b01176
      * Hamiltonian:
        H0-scaling (s, p, d)           1.850000    2.230000    2.230000
        zeta-weighting                 0.500000
      * Dispersion:
        s8                             2.700000
        a1                             0.520000
        a2                             5.000000
        s9                             5.000000
      * Repulsion:
        kExp                           1.500000    1.000000
        rExp                           1.000000
      * Coulomb:
        alpha                          2.000000
        third order                    shell-resolved
        anisotropic                    true
        a3                             3.000000
        a5                             4.000000
        cn-shift                       1.200000
        cn-exp                         4.000000
        max-rad                        5.000000


          ...................................................
          :                      SETUP                      :
          :.................................................:
          :  # basis functions                  51          :
          :  # atomic orbitals                  50          :
          :  # shells                           28          :
          :  # electrons                        51          :
          :  max. iterations                   250          :
          :  Hamiltonian                  GFN2-xTB          :
          :  restarted?                      false          :
          :  GBSA solvation                  false          :
          :  PC potential                    false          :
          :  electronic temp.          300.0000000     K    :
          :  accuracy                    1.0000000          :
          :  -> integral cutoff          0.2500000E+02      :
          :  -> integral neglect         0.1000000E-07      :
          :  -> SCF convergence          0.1000000E-05 Eh   :
          :  -> wf. convergence          0.1000000E-03 e    :
          :  Broyden damping             0.4000000          :
          :  net charge                          0          :
          :  unpaired electrons                  0          :
          ...................................................

 iter      E             dE          RMSdq      gap      omega  full diag
   1    -28.5020609 -0.285021E+02  0.427E+00    1.60       0.0  T
   2    -28.5948011 -0.927402E-01  0.338E+00    1.54       1.0  T
   3    -28.6162426 -0.214415E-01  0.187E+00    1.55       1.0  T
   4    -28.6063194  0.992316E-02  0.931E-01    1.52       1.0  T
   5    -28.6189695 -0.126501E-01  0.331E-01    1.40       1.0  T
   6    -28.6196293 -0.659795E-03  0.119E-01    1.44       1.0  T
   7    -28.6196690 -0.397628E-04  0.429E-02    1.44       1.0  T
   8    -28.6196729 -0.383878E-05  0.263E-02    1.43       1.0  T
   9    -28.6196752 -0.234353E-05  0.938E-03    1.44       2.5  T
  10    -28.6196755 -0.316343E-06  0.339E-03    1.43       7.0  T
  11    -28.6196755 -0.204798E-07  0.125E-03    1.43      18.9  T
  12    -28.6196755 -0.232571E-08  0.291E-04    1.43      81.0  T
  13    -28.6196755 -0.170743E-09  0.104E-04    1.43     226.4  T

   *** convergence criteria satisfied after 13 iterations ***

         #    Occupation            Energy/Eh            Energy/eV
      -------------------------------------------------------------
         1        2.0000           -0.7398987             -20.1337
       ...           ...                  ...                  ...
        20        2.0000           -0.4493811             -12.2283
        21        2.0000           -0.4387026             -11.9377
        22        2.0000           -0.4149103             -11.2903
        23        2.0000           -0.3963899             -10.7863
        24        2.0000           -0.3697105             -10.0603
        25        2.0000           -0.3648949              -9.9293
        26        1.0000           -0.2661752              -7.2430 (HOMO)
        27                         -0.2134454              -5.8081 (LUMO)
        28                         -0.1775061              -4.8302
        29                         -0.1269793              -3.4553
        30                         -0.0804349              -2.1887
        31                         -0.0601275              -1.6362
       ...                                ...                  ...
        50                          0.7875943              21.4315
      -------------------------------------------------------------
                  HL-Gap            0.0527299 Eh            1.4349 eV
             Fermi-level           -0.2776727 Eh           -7.5559 eV

 SCC (total)                   0 d,  0 h,  0 min,  1.382 sec
 SCC setup                      ...        0 min,  0.014 sec (  1.029%)
 Dispersion                     ...        0 min,  0.000 sec (  0.007%)
 classical contributions        ...        0 min,  0.002 sec (  0.163%)
 integral evaluation            ...        0 min,  0.002 sec (  0.115%)
 iterations                     ...        0 min,  1.259 sec ( 91.091%)
 molecular gradient             ...        0 min,  0.105 sec (  7.562%)
 printout                       ...        0 min,  0.000 sec (  0.032%)

         :::::::::::::::::::::::::::::::::::::::::::::::::::::
         ::                     SUMMARY                     ::
         :::::::::::::::::::::::::::::::::::::::::::::::::::::
         :: total energy             -26.928206270653 Eh    ::
         :: gradient norm              2.863825792033 Eh/a0 ::
         :: HOMO-LUMO gap              1.434852714469 eV    ::
         ::.................................................::
         :: SCC energy               -28.619642719095 Eh    ::
         :: -> isotropic ES            0.052784153326 Eh    ::
         :: -> anisotropic ES          0.005249710970 Eh    ::
         :: -> anisotropic XC          0.014448126913 Eh    ::
         :: -> dispersion             -0.015607278584 Eh    ::
         :: repulsion energy           0.293039968040 Eh    ::
         :: add. restraining           1.398396480402 Eh    ::
         :: total charge               0.000000000000 e     ::
         :::::::::::::::::::::::::::::::::::::::::::::::::::::

      ----------------------------------------------------------- 
     |                   =====================                   |
     |                        A N C O P T                        |
     |                   =====================                   |
     |               Approximate Normal Coordinate               |
     |                Rational Function Optimizer                |
      ----------------------------------------------------------- 
      ----------------------------------------------------------- 
     |                   =====================                   |
     |                        A N C O P T                        |
     |                   =====================                   |
     |               Approximate Normal Coordinate               |
     |                Rational Function Optimizer                |
      ----------------------------------------------------------- 

          ...................................................
          :                      SETUP                      :
          :.................................................:
          :   optimization level            normal          :
          :   max. optcycles                   200          :
          :   ANC micro-cycles                  20          :
          :   degrees of freedom                48          :
          :.................................................:
          :   RF solver                   davidson          :
          :   write xtbopt.log                true          :
          :   linear?                        false          :
          :   energy convergence         0.5000000E-05 Eh   :
          :   grad. convergence          0.1000000E-02 Eh/α :
          :   maxmium RF displ.          1.0000000          :
          :   Hlow (freq-cutoff)         0.1000000E-01      :
          :   Hmax (freq-cutoff)         5.0000000          :
          :   S6 in model hess.         20.0000000          :
          ...................................................

generating ANC from exact Hessian ...
Using Lindh-Hessian (1995)
 Shifting diagonal of input Hessian by   0.86647771754045588     
 Lowest  eigenvalues of input Hessian
    0.010000    0.477346    0.526561    0.677074    0.000000    0.000000
    0.000000    0.000000    0.000000    0.000000    0.873969    0.874537
    0.877703    0.879326    0.882437    0.895287    0.901392    0.910295
 Highest eigenvalues
    2.364677    2.558173    2.653284    2.919548    4.865926    5.592942


........................................................................
.............................. CYCLE    1 ..............................
........................................................................

 iter      E             dE          RMSdq      gap      omega  full diag
   1    -28.6196755 -0.286197E+02  0.362E-05    1.43       0.0  T
   2    -28.6196755 -0.617462E-11  0.216E-05    1.43    1088.9  T
   3    -28.6196755 -0.205347E-11  0.133E-05    1.43    1767.4  T
     SCC iter.                  ...        0 min,  0.280 sec
     gradient                   ...        0 min,  0.099 sec
 * total energy  :   -26.9282063 Eh     change       -0.3222311E-10 Eh
   gradient norm :     2.8638249 Eh/α   predicted     0.0000000E+00 (-100.00%)
   displ. norm   :     0.4990762 α      lambda       -0.1379332E+01
   maximum displ.:     0.4487273 α      in ANC's #47, #2, #34, ...

........................................................................
.............................. CYCLE    2 ..............................
........................................................................

 iter      E             dE          RMSdq      gap      omega  full diag
   1    -28.5988172 -0.285988E+02  0.178E+00    0.37       0.0  T
   2    -28.5919808  0.683637E-02  0.156E+00    0.81       1.0  T
   3    -28.6208762 -0.288954E-01  0.690E-01    0.40       1.0  T
   4    -28.6223229 -0.144668E-02  0.248E-01    0.41       1.0  T
   5    -28.6223319 -0.906101E-05  0.831E-02    0.41       1.0  T
   6    -28.6223603 -0.283277E-04  0.440E-02    0.40       1.0  T
   7    -28.6223589  0.142053E-05  0.290E-02    0.41       1.0  T
   8    -28.6223664 -0.758441E-05  0.647E-03    0.41       3.6  T
   9    -28.6223664 -0.115038E-07  0.474E-03    0.41       5.0  T
  10    -28.6223666 -0.141656E-06  0.174E-03    0.41      13.5  T
  11    -28.6223666 -0.167528E-07  0.613E-04    0.41      38.4  T
  12    -28.6223666 -0.371255E-08  0.247E-04    0.41      95.2  T
     SCC iter.                  ...        0 min,  1.171 sec
     gradient                   ...        0 min,  0.117 sec
 * total energy  :   -27.9602594 Eh     change       -0.1032053E+01 Eh
   gradient norm :     1.3757872 Eh/α   predicted    -0.8614459E+00 ( -16.53%)
   displ. norm   :     0.4725009 α      lambda       -0.5697398E+00
   maximum displ.:     0.3476081 α      in ANC's #47, #2, #1, ...

........................................................................
.............................. CYCLE    3 ..............................
........................................................................

 iter      E             dE          RMSdq      gap      omega  full diag
   1    -28.5924856 -0.285925E+02  0.173E+00    1.05       0.0  T
   2    -28.5793675  0.131181E-01  0.140E+00    0.57       1.0  T
   3    -28.5990725 -0.197050E-01  0.106E+00    0.79       1.0  T
   4    -28.6115775 -0.125050E-01  0.356E-01    0.66       1.0  T
   5    -28.6121755 -0.598067E-03  0.173E-01    0.60       1.0  T
   6    -28.6124440 -0.268421E-03  0.687E-02    0.61       1.0  T
   7    -28.6124779 -0.338906E-04  0.255E-02    0.62       1.0  T
   8    -28.6124807 -0.286665E-05  0.153E-02    0.62       1.5  T
   9    -28.6124822 -0.143524E-05  0.695E-03    0.62       3.4  T
  10    -28.6124823 -0.158785E-06  0.239E-03    0.62       9.9  T
  11    -28.6124824 -0.382549E-07  0.101E-03    0.62      23.3  T
  12    -28.6124824 -0.667811E-08  0.573E-04    0.62      41.2  T
  13    -28.6124824 -0.265240E-08  0.100E-04    0.62     235.6  T
     SCC iter.                  ...        0 min,  2.228 sec
     gradient                   ...        0 min,  0.119 sec
 * total energy  :   -28.2677935 Eh     change       -0.3075341E+00 Eh
   gradient norm :     0.1236753 Eh/α   predicted    -0.3484691E+00 (  13.31%)
   displ. norm   :     0.6899145 α      lambda       -0.2703279E-01
   maximum displ.:     0.6850055 α      in ANC's #1, #3, #33, ...

........................................................................
.............................. CYCLE    4 ..............................
........................................................................

 iter      E             dE          RMSdq      gap      omega  full diag
   1    -28.5324260 -0.285324E+02  0.238E+00    1.06       0.0  T
   2    -28.4474302  0.849958E-01  0.342E+00    1.26       1.0  T
   3    -28.5951373 -0.147707E+00  0.862E-01    1.04       1.0  T
   4    -28.5975880 -0.245077E-02  0.649E-01    0.93       1.0  T
   5    -28.6008825 -0.329448E-02  0.215E-01    0.92       1.0  T
   6    -28.6014418 -0.559264E-03  0.558E-02    0.94       1.0  T
   7    -28.6014361  0.571419E-05  0.378E-02    0.94       1.0  T
   8    -28.6014466 -0.105703E-04  0.114E-02    0.94       2.1  T
   9    -28.6014482 -0.151823E-05  0.464E-03    0.94       5.1  T
  10    -28.6014482 -0.876613E-07  0.196E-03    0.94      12.0  T
  11    -28.6014483 -0.309980E-07  0.756E-04    0.94      31.2  T
  12    -28.6014483 -0.236170E-08  0.413E-04    0.94      57.1  T
     SCC iter.                  ...        0 min,  1.178 sec
     gradient                   ...        0 min,  0.098 sec
 * total energy  :   -28.2507545 Eh     change        0.1703895E-01 Eh
   gradient norm :     0.4608526 Eh/α   predicted    -0.1994993E-01 (-217.08%)
   displ. norm   :     0.3817327 α      lambda       -0.7506817E-01
   maximum displ.:     0.3567670 α      in ANC's #1, #44, #3, ...

........................................................................
.............................. CYCLE    5 ..............................
........................................................................

 iter      E             dE          RMSdq      gap      omega  full diag
   1    -28.5787727 -0.285788E+02  0.157E+00    1.09       0.0  T
   2    -28.5397740  0.389988E-01  0.223E+00    0.83       1.0  T
   3    -28.6012894 -0.615154E-01  0.518E-01    0.85       1.0  T
   4    -28.6019666 -0.677195E-03  0.442E-01    0.86       1.0  T
   5    -28.6039603 -0.199376E-02  0.211E-01    0.82       1.0  T
   6    -28.6042712 -0.310864E-03  0.282E-02    0.84       1.0  T
   7    -28.6042702  0.976957E-06  0.201E-02    0.85       1.2  T
   8    -28.6042749 -0.468306E-05  0.717E-03    0.85       3.3  T
   9    -28.6042755 -0.573585E-06  0.233E-03    0.85      10.1  T
  10    -28.6042755  0.158147E-07  0.166E-03    0.85      14.2  T
  11    -28.6042755 -0.375842E-07  0.423E-04    0.85      55.7  T
  12    -28.6042755 -0.130893E-08  0.129E-04    0.85     183.0  T
     SCC iter.                  ...        0 min,  1.218 sec
     gradient                   ...        0 min,  0.095 sec
 * total energy  :   -28.2855638 Eh     change       -0.3480930E-01 Eh
   gradient norm :     0.0914406 Eh/α   predicted    -0.4300357E-01 (  23.54%)
   displ. norm   :     0.0782702 α      lambda       -0.4623299E-02
   maximum displ.:     0.0378997 α      in ANC's #1, #3, #2, ...

........................................................................
.............................. CYCLE    6 ..............................
........................................................................

 iter      E             dE          RMSdq      gap      omega  full diag
   1    -28.6056614 -0.286057E+02  0.133E-01    0.87       0.0  T
   2    -28.6056420  0.193879E-04  0.109E-01    0.87       1.0  T
   3    -28.6056548 -0.127936E-04  0.779E-02    0.87       1.0  T
   4    -28.6057179 -0.631275E-04  0.403E-02    0.87       1.0  T
   5    -28.6057364 -0.184771E-04  0.122E-02    0.87       1.9  T
   6    -28.6057382 -0.178735E-05  0.340E-03    0.87       6.9  T
   7    -28.6057382 -0.537397E-07  0.207E-03    0.87      11.4  T
   8    -28.6057382 -0.322594E-07  0.602E-04    0.87      39.2  T
   9    -28.6057382 -0.250924E-08  0.369E-04    0.87      63.8  T
     SCC iter.                  ...        0 min,  0.924 sec
     gradient                   ...        0 min,  0.002 sec
 * total energy  :   -28.2895127 Eh     change       -0.3948839E-02 Eh
   gradient norm :     0.0560241 Eh/α   predicted    -0.2325810E-02 ( -41.10%)
   displ. norm   :     0.2628252 α      lambda       -0.1003884E-01
   maximum displ.:     0.1499909 α      in ANC's #1, #3, #26, ...

........................................................................
.............................. CYCLE    7 ..............................
........................................................................

 iter      E             dE          RMSdq      gap      omega  full diag
   1    -28.6043284 -0.286043E+02  0.396E-01    0.95       0.0  T
   2    -28.6043945 -0.661420E-04  0.253E-01    0.95       1.0  T
   3    -28.6036035  0.791061E-03  0.267E-01    0.95       1.0  T
   4    -28.6046586 -0.105514E-02  0.849E-02    0.95       1.0  T
   5    -28.6047290 -0.704243E-04  0.269E-02    0.95       1.0  T
   6    -28.6047374 -0.834273E-05  0.103E-02    0.95       2.3  T
   7    -28.6047378 -0.425428E-06  0.530E-03    0.95       4.4  T
   8    -28.6047381 -0.292231E-06  0.156E-03    0.95      15.1  T
   9    -28.6047381 -0.300155E-09  0.111E-03    0.95      21.3  T
  10    -28.6047381 -0.669795E-08  0.460E-04    0.95      51.2  T
  11    -28.6047381 -0.848132E-09  0.244E-04    0.95      96.4  T
     SCC iter.                  ...        0 min,  1.252 sec
     gradient                   ...        0 min,  0.141 sec
 * total energy  :   -28.2954466 Eh     change       -0.5933972E-02 Eh
   gradient norm :     0.0377963 Eh/α   predicted    -0.5366143E-02 (  -9.57%)
   displ. norm   :     0.0974833 α      lambda       -0.1848169E-02
   maximum displ.:     0.0642465 α      in ANC's #1, #3, #26, ...

........................................................................
.............................. CYCLE    8 ..............................
........................................................................

 iter      E             dE          RMSdq      gap      omega  full diag
   1    -28.6073061 -0.286073E+02  0.176E-01    0.97       0.0  T
   2    -28.6071008  0.205225E-03  0.165E-01    0.98       1.0  T
   3    -28.6073586 -0.257808E-03  0.877E-02    0.98       1.0  T
   4    -28.6074154 -0.567979E-04  0.448E-02    0.97       1.0  T
   5    -28.6074473 -0.319043E-04  0.111E-02    0.98       2.1  T
   6    -28.6074482 -0.808972E-06  0.562E-03    0.98       4.2  T
   7    -28.6074483 -0.158050E-06  0.217E-03    0.98      10.8  T
   8    -28.6074484 -0.508641E-07  0.730E-04    0.98      32.3  T
   9    -28.6074484 -0.860297E-09  0.355E-04    0.98      66.5  T
     SCC iter.                  ...        0 min,  0.844 sec
     gradient                   ...        0 min,  0.007 sec
 * total energy  :   -28.2968934 Eh     change       -0.1446805E-02 Eh
   gradient norm :     0.0373987 Eh/α   predicted    -0.9328645E-03 ( -35.52%)
   displ. norm   :     0.1548192 α      lambda       -0.2683772E-02
   maximum displ.:     0.0906467 α      in ANC's #1, #26, #3, ...

........................................................................
.............................. CYCLE    9 ..............................
........................................................................

 iter      E             dE          RMSdq      gap      omega  full diag
   1    -28.6123834 -0.286124E+02  0.245E-01    1.02       0.0  T
   2    -28.6119021  0.481297E-03  0.244E-01    1.02       1.0  T
   3    -28.6125159 -0.613798E-03  0.118E-01    1.02       1.0  T
   4    -28.6125956 -0.796922E-04  0.617E-02    1.02       1.0  T
   5    -28.6126563 -0.606889E-04  0.152E-02    1.02       1.6  T
   6    -28.6126573 -0.100751E-05  0.790E-03    1.02       3.0  T
   7    -28.6126578 -0.489315E-06  0.252E-03    1.02       9.3  T
   8    -28.6126578 -0.426418E-07  0.860E-04    1.02      27.4  T
   9    -28.6126578 -0.575049E-09  0.454E-04    1.02      51.9  T
     SCC iter.                  ...        0 min,  0.938 sec
     gradient                   ...        0 min,  0.041 sec
 * total energy  :   -28.2986746 Eh     change       -0.1781201E-02 Eh
   gradient norm :     0.0240099 Eh/α   predicted    -0.1374051E-02 ( -22.86%)
   displ. norm   :     0.0771198 α      lambda       -0.9982381E-03
   maximum displ.:     0.0326822 α      in ANC's #14, #2, #26, ...

........................................................................
.............................. CYCLE   10 ..............................
........................................................................

 iter      E             dE          RMSdq      gap      omega  full diag
   1    -28.6174953 -0.286175E+02  0.105E-01    1.05       0.0  T
   2    -28.6174696  0.256206E-04  0.815E-02    1.04       1.0  T
   3    -28.6174806 -0.109729E-04  0.676E-02    1.04       1.0  T
   4    -28.6175334 -0.527927E-04  0.229E-02    1.04       1.0  T
   5    -28.6175371 -0.374627E-05  0.831E-03    1.04       2.8  T
   6    -28.6175380 -0.887631E-06  0.386E-03    1.04       6.1  T
   7    -28.6175382 -0.186423E-06  0.130E-03    1.04      18.1  T
   8    -28.6175382 -0.871666E-08  0.364E-04    1.04      64.8  T
   9    -28.6175382 -0.459607E-09  0.204E-04    1.04     115.7  T
     SCC iter.                  ...        0 min,  1.078 sec
     gradient                   ...        0 min,  0.002 sec
 * total energy  :   -28.2993511 Eh     change       -0.6764437E-03 Eh
   gradient norm :     0.0201911 Eh/α   predicted    -0.5020865E-03 ( -25.78%)
   displ. norm   :     0.0597252 α      lambda       -0.5842791E-03
   maximum displ.:     0.0302341 α      in ANC's #14, #3, #2, ...

........................................................................
.............................. CYCLE   11 ..............................
........................................................................

 iter      E             dE          RMSdq      gap      omega  full diag
   1    -28.6203880 -0.286204E+02  0.938E-02    1.06       0.0  T
   2    -28.6203886 -0.628228E-06  0.805E-02    1.05       1.0  T
   3    -28.6204287 -0.400266E-04  0.393E-02    1.05       1.0  T
   4    -28.6204289 -0.253807E-06  0.304E-02    1.05       1.0  T
   5    -28.6204422 -0.132881E-04  0.851E-03    1.05       2.8  T
   6    -28.6204429 -0.662740E-06  0.226E-03    1.05      10.4  T
   7    -28.6204429 -0.436882E-07  0.147E-03    1.05      16.0  T
   8    -28.6204429 -0.147860E-07  0.357E-04    1.05      66.0  T
   9    -28.6204429 -0.865782E-09  0.178E-04    1.05     132.6  T
     SCC iter.                  ...        0 min,  0.697 sec
     gradient                   ...        0 min,  0.108 sec
 * total energy  :   -28.2997698 Eh     change       -0.4187327E-03 Eh
   gradient norm :     0.0159719 Eh/α   predicted    -0.2931799E-03 ( -29.98%)
   displ. norm   :     0.0570031 α      lambda       -0.5096972E-03
   maximum displ.:     0.0296524 α      in ANC's #14, #1, #2, ...

........................................................................
.............................. CYCLE   12 ..............................
........................................................................

 iter      E             dE          RMSdq      gap      omega  full diag
   1    -28.6234723 -0.286235E+02  0.107E-01    1.06       0.0  T
   2    -28.6234320  0.403203E-04  0.108E-01    1.05       1.0  T
   3    -28.6235352 -0.103227E-03  0.436E-02    1.05       1.0  T
   4    -28.6235417 -0.650586E-05  0.307E-02    1.05       1.0  T
   5    -28.6235541 -0.123467E-04  0.954E-03    1.05       2.5  T
   6    -28.6235547 -0.657072E-06  0.310E-03    1.05       7.6  T
   7    -28.6235548 -0.503233E-07  0.191E-03    1.05      12.4  T
   8    -28.6235548 -0.234115E-07  0.436E-04    1.05      54.0  T
   9    -28.6235548 -0.600718E-09  0.229E-04    1.05     102.8  T
     SCC iter.                  ...        0 min,  1.030 sec
     gradient                   ...        0 min,  0.051 sec
 * total energy  :   -28.3001209 Eh     change       -0.3510769E-03 Eh
   gradient norm :     0.0143745 Eh/α   predicted    -0.2556756E-03 ( -27.17%)
   displ. norm   :     0.0483305 α      lambda       -0.3658793E-03
   maximum displ.:     0.0275684 α      in ANC's #14, #10, #18, ...

........................................................................
.............................. CYCLE   13 ..............................
........................................................................

 iter      E             dE          RMSdq      gap      omega  full diag
   1    -28.6242899 -0.286243E+02  0.713E-02    1.05       0.0  T
   2    -28.6242384  0.515132E-04  0.844E-02    1.05       1.0  T
   3    -28.6243220 -0.836674E-04  0.288E-02    1.05       1.0  T
   4    -28.6243227 -0.678294E-06  0.203E-02    1.05       1.2  T
   5    -28.6243284 -0.566873E-05  0.597E-03    1.05       3.9  T
   6    -28.6243287 -0.330474E-06  0.213E-03    1.05      11.1  T
   7    -28.6243287 -0.115370E-07  0.111E-03    1.05      21.2  T
   8    -28.6243287 -0.889327E-08  0.297E-04    1.05      79.3  T
   9    -28.6243287 -0.971276E-10  0.133E-04    1.05     177.6  T
     SCC iter.                  ...        0 min,  0.777 sec
     gradient                   ...        0 min,  0.137 sec
 * total energy  :   -28.3003894 Eh     change       -0.2685361E-03 Eh
   gradient norm :     0.0144000 Eh/α   predicted    -0.1833675E-03 ( -31.72%)
   displ. norm   :     0.0616364 α      lambda       -0.4109446E-03
   maximum displ.:     0.0339148 α      in ANC's #14, #10, #2, ...

........................................................................
.............................. CYCLE   14 ..............................
........................................................................

 iter      E             dE          RMSdq      gap      omega  full diag
   1    -28.6245787 -0.286246E+02  0.546E-02    1.04       0.0  T
   2    -28.6245684  0.103070E-04  0.437E-02    1.05       1.0  T
   3    -28.6245710 -0.264572E-05  0.359E-02    1.04       1.0  T
   4    -28.6245846 -0.135773E-04  0.965E-03    1.04       2.4  T
   5    -28.6245860 -0.139446E-05  0.388E-03    1.04       6.1  T
   6    -28.6245862 -0.165113E-06  0.129E-03    1.04      18.3  T
   7    -28.6245862 -0.937686E-08  0.633E-04    1.04      37.3  T
   8    -28.6245862 -0.142816E-08  0.277E-04    1.04      85.2  T
     SCC iter.                  ...        0 min,  0.790 sec
     gradient                   ...        0 min,  0.129 sec
 * total energy  :   -28.3006881 Eh     change       -0.2986305E-03 Eh
   gradient norm :     0.0131198 Eh/α   predicted    -0.2062526E-03 ( -30.93%)
   displ. norm   :     0.0747760 α      lambda       -0.4010163E-03
   maximum displ.:     0.0393745 α      in ANC's #14, #10, #2, ...

........................................................................
.............................. CYCLE   15 ..............................
........................................................................

 iter      E             dE          RMSdq      gap      omega  full diag
   1    -28.6231848 -0.286232E+02  0.627E-02    1.05       0.0  T
   2    -28.6231871 -0.224272E-05  0.430E-02    1.05       1.0  T
   3    -28.6231885 -0.139265E-05  0.295E-02    1.05       1.0  T
   4    -28.6231850  0.345556E-05  0.240E-02    1.05       1.0  T
   5    -28.6231954 -0.104429E-04  0.310E-03    1.05       7.6  T
   6    -28.6231955 -0.177156E-07  0.167E-03    1.05      14.1  T
   7    -28.6231955 -0.147810E-07  0.975E-04    1.05      24.2  T
   8    -28.6231955 -0.106507E-07  0.286E-04    1.05      82.5  T
     SCC iter.                  ...        0 min,  1.095 sec
     gradient                   ...        0 min,  0.155 sec
 * total energy  :   -28.3009768 Eh     change       -0.2887287E-03 Eh
   gradient norm :     0.0138914 Eh/α   predicted    -0.2016276E-03 ( -30.17%)
   displ. norm   :     0.0742419 α      lambda       -0.3407277E-03
   maximum displ.:     0.0355784 α      in ANC's #14, #2, #1, ...

........................................................................
.............................. CYCLE   16 ..............................
........................................................................

 iter      E             dE          RMSdq      gap      omega  full diag
   1    -28.6213959 -0.286214E+02  0.733E-02    1.06       0.0  T
   2    -28.6213603  0.355940E-04  0.788E-02    1.06       1.0  T
   3    -28.6214215 -0.611340E-04  0.309E-02    1.06       1.0  T
   4    -28.6214199  0.153768E-05  0.243E-02    1.06       1.0  T
   5    -28.6214294 -0.943328E-05  0.516E-03    1.06       4.6  T
   6    -28.6214295 -0.158385E-06  0.217E-03    1.06      10.9  T
   7    -28.6214295 -0.290203E-07  0.111E-03    1.06      21.2  T
   8    -28.6214296 -0.975073E-08  0.310E-04    1.06      76.0  T
   9    -28.6214296 -0.428422E-10  0.136E-04    1.06     173.7  T
     SCC iter.                  ...        0 min,  0.908 sec
     gradient                   ...        0 min,  0.176 sec
 * total energy  :   -28.3012195 Eh     change       -0.2426869E-03 Eh
   gradient norm :     0.0130385 Eh/α   predicted    -0.1713042E-03 ( -29.41%)
   displ. norm   :     0.0632042 α      lambda       -0.2621322E-03
   maximum displ.:     0.0268892 α      in ANC's #14, #1, #2, ...

........................................................................
.............................. CYCLE   17 ..............................
........................................................................

 iter      E             dE          RMSdq      gap      omega  full diag
   1    -28.6196630 -0.286197E+02  0.562E-02    1.08       0.0  T
   2    -28.6196264  0.365743E-04  0.687E-02    1.08       1.0  T
   3    -28.6196832 -0.567822E-04  0.232E-02    1.08       1.0  T
   4    -28.6196808  0.233056E-05  0.173E-02    1.08       1.4  T
   5    -28.6196861 -0.522859E-05  0.430E-03    1.08       5.5  T
   6    -28.6196862 -0.109191E-06  0.167E-03    1.08      14.1  T
   7    -28.6196862 -0.731232E-08  0.885E-04    1.08      26.6  T
   8    -28.6196862 -0.724631E-08  0.259E-04    1.08      91.1  T
     SCC iter.                  ...        0 min,  1.554 sec
     gradient                   ...        0 min,  0.181 sec
 * total energy  :   -28.3014096 Eh     change       -0.1901208E-03 Eh
   gradient norm :     0.0110671 Eh/α   predicted    -0.1315883E-03 ( -30.79%)
   displ. norm   :     0.0580314 α      lambda       -0.2413155E-03
   maximum displ.:     0.0221246 α      in ANC's #17, #14, #13, ...

........................................................................
.............................. CYCLE   18 ..............................
........................................................................

 iter      E             dE          RMSdq      gap      omega  full diag
   1    -28.6185135 -0.286185E+02  0.412E-02    1.09       0.0  T
   2    -28.6185004  0.131146E-04  0.415E-02    1.09       1.0  T
   3    -28.6185182 -0.178223E-04  0.214E-02    1.09       1.1  T
   4    -28.6185207 -0.247556E-05  0.885E-03    1.09       2.7  T
   5    -28.6185219 -0.120315E-05  0.322E-03    1.09       7.3  T
   6    -28.6185220 -0.441356E-07  0.161E-03    1.09      14.7  T
   7    -28.6185220 -0.286371E-07  0.435E-04    1.09      54.1  T
   8    -28.6185220 -0.926089E-09  0.198E-04    1.09     119.2  T
     SCC iter.                  ...        0 min,  0.895 sec
     gradient                   ...        0 min,  0.215 sec
 * total energy  :   -28.3015885 Eh     change       -0.1788657E-03 Eh
   gradient norm :     0.0102272 Eh/α   predicted    -0.1210645E-03 ( -32.32%)
   displ. norm   :     0.0672838 α      lambda       -0.2700305E-03
   maximum displ.:     0.0293734 α      in ANC's #17, #13, #18, ...

........................................................................
.............................. CYCLE   19 ..............................
........................................................................

 iter      E             dE          RMSdq      gap      omega  full diag
   1    -28.6178201 -0.286178E+02  0.582E-02    1.11       0.0  T
   2    -28.6178254 -0.522311E-05  0.323E-02    1.10       1.0  T
   3    -28.6178286 -0.327399E-05  0.185E-02    1.11       1.3  T
   4    -28.6178294 -0.756696E-06  0.553E-03    1.11       4.3  T
   5    -28.6178294 -0.431143E-08  0.411E-03    1.11       5.7  T
   6    -28.6178296 -0.176716E-06  0.210E-03    1.11      11.2  T
   7    -28.6178296 -0.610023E-07  0.594E-04    1.11      39.7  T
   8    -28.6178296 -0.508028E-08  0.267E-04    1.11      88.4  T
     SCC iter.                  ...        0 min,  0.942 sec
     gradient                   ...        0 min,  0.187 sec
 * total energy  :   -28.3017903 Eh     change       -0.2018488E-03 Eh
   gradient norm :     0.0119207 Eh/α   predicted    -0.1356268E-03 ( -32.81%)
   displ. norm   :     0.0831357 α      lambda       -0.3217769E-03
   maximum displ.:     0.0387013 α      in ANC's #17, #13, #18, ...

........................................................................
.............................. CYCLE   20 ..............................
........................................................................

 iter      E             dE          RMSdq      gap      omega  full diag
   1    -28.6179914 -0.286180E+02  0.906E-02    1.12       0.0  T
   2    -28.6179837  0.766105E-05  0.658E-02    1.11       1.0  T
   3    -28.6180045 -0.207750E-04  0.402E-02    1.12       1.0  T
   4    -28.6180100 -0.547815E-05  0.284E-02    1.12       1.0  T
   5    -28.6180234 -0.133572E-04  0.620E-03    1.12       3.8  T
   6    -28.6180235 -0.116899E-06  0.325E-03    1.12       7.2  T
   7    -28.6180236 -0.776881E-07  0.955E-04    1.12      24.7  T
   8    -28.6180236 -0.849545E-08  0.377E-04    1.12      62.6  T
     SCC iter.                  ...        0 min,  1.593 sec
     gradient                   ...        0 min,  0.183 sec
 * total energy  :   -28.3020284 Eh     change       -0.2380571E-03 Eh
   gradient norm :     0.0152803 Eh/α   predicted    -0.1619988E-03 ( -31.95%)
   displ. norm   :     0.0944960 α      lambda       -0.3537202E-03
   maximum displ.:     0.0452509 α      in ANC's #13, #17, #18, ...
 * RMSD in coord.:     0.3804174 α      energy gain  -0.1373822E+01 Eh

generating ANC from exact Hessian ...
Using Lindh-Hessian (1995)
 Shifting diagonal of input Hessian by    1.6709704879575030E-002
 Lowest  eigenvalues of input Hessian
    0.010000    0.000000    0.000000    0.000000    0.000000    0.000000
    0.000000    0.018552    0.020117    0.021783    0.025959    0.027663
    0.032100    0.033649    0.034981    0.038827    0.041358    0.051187
 Highest eigenvalues
    1.734038    1.983084    2.144521    2.237429    3.333147    4.037031


........................................................................
.............................. CYCLE   21 ..............................
........................................................................

 iter      E             dE          RMSdq      gap      omega  full diag
   1    -28.6191726 -0.286192E+02  0.104E-01    1.13       0.0  T
   2    -28.6191280  0.445594E-04  0.892E-02    1.12       1.0  T
   3    -28.6191930 -0.649680E-04  0.479E-02    1.12       1.0  T
   4    -28.6192087 -0.157604E-04  0.294E-02    1.12       1.0  T
   5    -28.6192221 -0.133901E-04  0.798E-03    1.12       3.0  T
   6    -28.6192224 -0.320253E-06  0.382E-03    1.12       6.2  T
   7    -28.6192225 -0.755703E-07  0.111E-03    1.12      21.1  T
   8    -28.6192225 -0.904020E-08  0.465E-04    1.12      50.7  T
   9    -28.6192225 -0.229861E-09  0.259E-04    1.12      91.0  T
     SCC iter.                  ...        0 min,  1.484 sec
     gradient                   ...        0 min,  0.213 sec
 * total energy  :   -28.3022884 Eh     change       -0.2600081E-03 Eh
   gradient norm :     0.0173112 Eh/α   predicted     0.0000000E+00 (-100.00%)
   displ. norm   :     0.1963201 α      lambda       -0.1179039E-02
   maximum displ.:     0.1260348 α      in ANC's #2, #1, #4, ...

........................................................................
.............................. CYCLE   22 ..............................
........................................................................

 iter      E             dE          RMSdq      gap      omega  full diag
   1    -28.6220942 -0.286221E+02  0.911E-02    1.14       0.0  T
   2    -28.6220905  0.371930E-05  0.565E-02    1.14       1.0  T
   3    -28.6220668  0.236637E-04  0.558E-02    1.14       1.0  T
   4    -28.6220985 -0.316726E-04  0.213E-02    1.14       1.1  T
   5    -28.6221061 -0.766184E-05  0.573E-03    1.14       4.1  T
   6    -28.6221063 -0.174129E-06  0.269E-03    1.14       8.8  T
   7    -28.6221064 -0.636051E-07  0.101E-03    1.14      23.4  T
   8    -28.6221064 -0.721118E-08  0.499E-04    1.14      47.3  T
   9    -28.6221064 -0.513978E-09  0.110E-04    1.14     213.8  T
     SCC iter.                  ...        0 min,  3.148 sec
     gradient                   ...        0 min,  0.139 sec
 * total energy  :   -28.3032693 Eh     change       -0.9809339E-03 Eh
   gradient norm :     0.0087387 Eh/α   predicted    -0.6122412E-03 ( -37.59%)
   displ. norm   :     0.4719492 α      lambda       -0.1846415E-02
   maximum displ.:     0.3347391 α      in ANC's #2, #1, #4, ...

........................................................................
.............................. CYCLE   23 ..............................
........................................................................

 iter      E             dE          RMSdq      gap      omega  full diag
   1    -28.6234172 -0.286234E+02  0.245E-01    1.19       0.0  T
   2    -28.6230544  0.362782E-03  0.234E-01    1.18       1.0  T
   3    -28.6235791 -0.524640E-03  0.115E-01    1.18       1.0  T
   4    -28.6236486 -0.695310E-04  0.683E-02    1.18       1.0  T
   5    -28.6237181 -0.695080E-04  0.152E-02    1.18       1.5  T
   6    -28.6237190 -0.863304E-06  0.869E-03    1.18       2.7  T
   7    -28.6237197 -0.727705E-06  0.234E-03    1.18      10.1  T
   8    -28.6237197 -0.254448E-07  0.115E-03    1.18      20.6  T
   9    -28.6237197 -0.257772E-08  0.330E-04    1.18      71.5  T
  10    -28.6237197 -0.289372E-09  0.114E-04    1.18     206.5  T
     SCC iter.                  ...        0 min,  1.581 sec
     gradient                   ...        0 min,  0.136 sec
 * total energy  :   -28.3045606 Eh     change       -0.1291274E-02 Eh
   gradient norm :     0.0144900 Eh/α   predicted    -0.1128838E-02 ( -12.58%)
   displ. norm   :     0.4215538 α      lambda       -0.9988053E-03
   maximum displ.:     0.3134210 α      in ANC's #2, #1, #5, ...

........................................................................
.............................. CYCLE   24 ..............................
........................................................................

 iter      E             dE          RMSdq      gap      omega  full diag
   1    -28.6228418 -0.286228E+02  0.179E-01    1.23       0.0  T
   2    -28.6227410  0.100793E-03  0.148E-01    1.23       1.0  T
   3    -28.6228496 -0.108652E-03  0.961E-02    1.23       1.0  T
   4    -28.6229054 -0.557749E-04  0.520E-02    1.23       1.0  T
   5    -28.6229485 -0.430583E-04  0.107E-02    1.23       2.2  T
   6    -28.6229489 -0.484032E-06  0.631E-03    1.23       3.7  T
   7    -28.6229494 -0.436950E-06  0.173E-03    1.23      13.6  T
   8    -28.6229494 -0.520205E-08  0.931E-04    1.23      25.3  T
   9    -28.6229494 -0.167534E-08  0.169E-04    1.23     139.2  T
     SCC iter.                  ...        0 min,  1.038 sec
     gradient                   ...        0 min,  0.167 sec
 * total energy  :   -28.3052688 Eh     change       -0.7082622E-03 Eh
   gradient norm :     0.0252079 Eh/α   predicted    -0.5881623E-03 ( -16.96%)
   displ. norm   :     0.4467380 α      lambda       -0.1217939E-02
   maximum displ.:     0.3665309 α      in ANC's #2, #8, #1, ...

........................................................................
.............................. CYCLE   25 ..............................
........................................................................

 iter      E             dE          RMSdq      gap      omega  full diag
   1    -28.6220783 -0.286221E+02  0.223E-01    1.25       0.0  T
   2    -28.6219267  0.151617E-03  0.176E-01    1.25       1.0  T
   3    -28.6220336 -0.106963E-03  0.125E-01    1.25       1.0  T
   4    -28.6221732 -0.139546E-03  0.552E-02    1.25       1.0  T
   5    -28.6222192 -0.459854E-04  0.124E-02    1.25       1.9  T
   6    -28.6222192 -0.225933E-07  0.638E-03    1.25       3.7  T
   7    -28.6222198 -0.571378E-06  0.182E-03    1.25      13.0  T
   8    -28.6222198 -0.164166E-07  0.106E-03    1.25      22.3  T
   9    -28.6222198 -0.372587E-08  0.233E-04    1.25     101.4  T
  10    -28.6222198 -0.163613E-09  0.104E-04    1.25     226.1  T
     SCC iter.                  ...        0 min,  1.236 sec
     gradient                   ...        0 min,  0.147 sec
 * total energy  :   -28.3060644 Eh     change       -0.7956060E-03 Eh
   gradient norm :     0.0228204 Eh/α   predicted    -0.7305153E-03 (  -8.18%)
   displ. norm   :     0.3583617 α      lambda       -0.1157736E-02
   maximum displ.:     0.2740700 α      in ANC's #2, #1, #4, ...

........................................................................
.............................. CYCLE   26 ..............................
........................................................................

 iter      E             dE          RMSdq      gap      omega  full diag
   1    -28.6239113 -0.286239E+02  0.201E-01    1.29       0.0  T
   2    -28.6235910  0.320296E-03  0.218E-01    1.29       1.0  T
   3    -28.6241005 -0.509463E-03  0.908E-02    1.29       1.0  T
   4    -28.6240931  0.743926E-05  0.597E-02    1.29       1.0  T
   5    -28.6241458 -0.527323E-04  0.959E-03    1.29       2.5  T
   6    -28.6241464 -0.648860E-06  0.544E-03    1.29       4.3  T
   7    -28.6241468 -0.375627E-06  0.190E-03    1.29      12.4  T
   8    -28.6241468 -0.140910E-07  0.680E-04    1.29      34.7  T
   9    -28.6241468 -0.568225E-09  0.281E-04    1.29      84.0  T
     SCC iter.                  ...        0 min,  1.134 sec
     gradient                   ...        0 min,  0.065 sec
 * total energy  :   -28.3066641 Eh     change       -0.5996128E-03 Eh
   gradient norm :     0.0143233 Eh/α   predicted    -0.6532072E-03 (   8.94%)
   displ. norm   :     0.2324086 α      lambda       -0.6242163E-03
   maximum displ.:     0.1547262 α      in ANC's #2, #1, #4, ...

........................................................................
.............................. CYCLE   27 ..............................
........................................................................

 iter      E             dE          RMSdq      gap      omega  full diag
   1    -28.6246227 -0.286246E+02  0.166E-01    1.32       0.0  T
   2    -28.6244766  0.146065E-03  0.166E-01    1.31       1.0  T
   3    -28.6247683 -0.291708E-03  0.640E-02    1.32       1.0  T
   4    -28.6247819 -0.135960E-04  0.482E-02    1.32       1.0  T
   5    -28.6248132 -0.313062E-04  0.115E-02    1.32       2.0  T
   6    -28.6248140 -0.780449E-06  0.595E-03    1.32       4.0  T
   7    -28.6248142 -0.252142E-06  0.144E-03    1.32      16.4  T
   8    -28.6248143 -0.832397E-08  0.773E-04    1.32      30.5  T
   9    -28.6248143 -0.147173E-08  0.376E-04    1.32      62.6  T
     SCC iter.                  ...        0 min,  1.051 sec
     gradient                   ...        0 min,  0.198 sec
 * total energy  :   -28.3070915 Eh     change       -0.4274808E-03 Eh
   gradient norm :     0.0110747 Eh/α   predicted    -0.3289684E-03 ( -23.04%)
   displ. norm   :     0.2251976 α      lambda       -0.4017343E-03
   maximum displ.:     0.1414326 α      in ANC's #2, #1, #4, ...

........................................................................
.............................. CYCLE   28 ..............................
........................................................................

 iter      E             dE          RMSdq      gap      omega  full diag
   1    -28.6264384 -0.286264E+02  0.112E-01    1.33       0.0  T
   2    -28.6264014  0.370215E-04  0.848E-02    1.33       1.0  T
   3    -28.6264151 -0.137175E-04  0.652E-02    1.33       1.0  T
   4    -28.6264627 -0.476239E-04  0.215E-02    1.33       1.1  T
   5    -28.6264692 -0.644294E-05  0.710E-03    1.33       3.3  T
   6    -28.6264695 -0.328407E-06  0.310E-03    1.33       7.6  T
   7    -28.6264696 -0.687993E-07  0.102E-03    1.33      23.1  T
   8    -28.6264696 -0.735178E-08  0.572E-04    1.33      41.2  T
   9    -28.6264696 -0.800814E-09  0.176E-04    1.33     134.0  T
     SCC iter.                  ...        0 min,  0.878 sec
     gradient                   ...        0 min,  0.106 sec
 * total energy  :   -28.3073492 Eh     change       -0.2576195E-03 Eh
   gradient norm :     0.0089766 Eh/α   predicted    -0.2110535E-03 ( -18.08%)
   displ. norm   :     0.2598186 α      lambda       -0.2072249E-03
   maximum displ.:     0.1713115 α      in ANC's #2, #1, #4, ...

........................................................................
.............................. CYCLE   29 ..............................
........................................................................

 iter      E             dE          RMSdq      gap      omega  full diag
   1    -28.6254980 -0.286255E+02  0.108E-01    1.35       0.0  T
   2    -28.6254345  0.634782E-04  0.976E-02    1.35       1.0  T
   3    -28.6255180 -0.835142E-04  0.546E-02    1.35       1.0  T
   4    -28.6255355 -0.175068E-04  0.273E-02    1.35       1.0  T
   5    -28.6255470 -0.114593E-04  0.586E-03    1.35       4.0  T
   6    -28.6255472 -0.253438E-06  0.303E-03    1.35       7.8  T
   7    -28.6255473 -0.753038E-07  0.760E-04    1.35      31.0  T
   8    -28.6255473 -0.558579E-09  0.460E-04    1.35      51.3  T
     SCC iter.                  ...        0 min,  2.540 sec
     gradient                   ...        0 min,  0.149 sec
 * total energy  :   -28.3074700 Eh     change       -0.1208578E-03 Eh
   gradient norm :     0.0148252 Eh/α   predicted    -0.1106047E-03 (  -8.48%)
   displ. norm   :     0.2230485 α      lambda       -0.3652783E-03
   maximum displ.:     0.1092911 α      in ANC's #3, #2, #5, ...

........................................................................
.............................. CYCLE   30 ..............................
........................................................................

 iter      E             dE          RMSdq      gap      omega  full diag
   1    -28.6298633 -0.286299E+02  0.112E-01    1.35       0.0  T
   2    -28.6297930  0.703563E-04  0.114E-01    1.35       1.0  T
   3    -28.6299237 -0.130754E-03  0.506E-02    1.35       1.0  T
   4    -28.6299209  0.284012E-05  0.349E-02    1.35       1.0  T
   5    -28.6299393 -0.183843E-04  0.556E-03    1.35       4.2  T
   6    -28.6299396 -0.333214E-06  0.284E-03    1.35       8.3  T
   7    -28.6299397 -0.684179E-07  0.891E-04    1.35      26.4  T
   8    -28.6299397 -0.160513E-08  0.468E-04    1.35      50.4  T
     SCC iter.                  ...        0 min,  1.968 sec
     gradient                   ...        0 min,  0.002 sec
 * total energy  :   -28.3074995 Eh     change       -0.2950735E-04 Eh
   gradient norm :     0.0181079 Eh/α   predicted    -0.1917229E-03 ( 549.75%)
   displ. norm   :     0.0905313 α      lambda       -0.2751940E-03
   maximum displ.:     0.0623174 α      in ANC's #1, #8, #2, ...

........................................................................
.............................. CYCLE   31 ..............................
........................................................................

 iter      E             dE          RMSdq      gap      omega  full diag
   1    -28.6281958 -0.286282E+02  0.761E-02    1.36       0.0  T
   2    -28.6281182  0.776461E-04  0.978E-02    1.36       1.0  T
   3    -28.6282553 -0.137094E-03  0.256E-02    1.35       1.0  T
   4    -28.6282548  0.470224E-06  0.195E-02    1.36       1.2  T
   5    -28.6282589 -0.414907E-05  0.445E-03    1.36       5.3  T
   6    -28.6282592 -0.285529E-06  0.156E-03    1.36      15.1  T
   7    -28.6282592 -0.842343E-08  0.687E-04    1.36      34.3  T
   8    -28.6282592 -0.805642E-09  0.282E-04    1.36      83.6  T
     SCC iter.                  ...        0 min,  0.911 sec
     gradient                   ...        0 min,  0.092 sec
 * total energy  :   -28.3076646 Eh     change       -0.1650762E-03 Eh
   gradient norm :     0.0049890 Eh/α   predicted    -0.1387233E-03 ( -15.96%)
   displ. norm   :     0.0777258 α      lambda       -0.8803859E-04
   maximum displ.:     0.0394297 α      in ANC's #1, #5, #3, ...

........................................................................
.............................. CYCLE   32 ..............................
........................................................................

 iter      E             dE          RMSdq      gap      omega  full diag
   1    -28.6277224 -0.286277E+02  0.332E-02    1.36       0.0  T
   2    -28.6277161  0.627325E-05  0.333E-02    1.36       1.0  T
   3    -28.6277282 -0.120394E-04  0.146E-02    1.36       1.6  T
   4    -28.6277282 -0.625895E-07  0.101E-02    1.36       2.3  T
   5    -28.6277297 -0.149447E-05  0.226E-03    1.36      10.4  T
   6    -28.6277298 -0.521528E-07  0.980E-04    1.36      24.1  T
   7    -28.6277298 -0.468365E-08  0.359E-04    1.36      65.6  T
     SCC iter.                  ...        0 min,  0.649 sec
     gradient                   ...        0 min,  0.174 sec
 * total energy  :   -28.3077390 Eh     change       -0.7444326E-04 Eh
   gradient norm :     0.0052143 Eh/α   predicted    -0.4428520E-04 ( -40.51%)
   displ. norm   :     0.3105609 α      lambda       -0.2898889E-03
   maximum displ.:     0.1592681 α      in ANC's #3, #1, #5, ...

........................................................................
.............................. CYCLE   33 ..............................
........................................................................

 iter      E             dE          RMSdq      gap      omega  full diag
   1    -28.6261742 -0.286262E+02  0.930E-02    1.36       0.0  T
   2    -28.6261700  0.421308E-05  0.607E-02    1.36       1.0  T
   3    -28.6261578  0.121907E-04  0.537E-02    1.36       1.0  T
   4    -28.6261797 -0.219293E-04  0.239E-02    1.36       1.0  T
   5    -28.6261902 -0.104639E-04  0.609E-03    1.36       3.9  T
   6    -28.6261905 -0.335840E-06  0.189E-03    1.36      12.5  T
   7    -28.6261905 -0.991122E-08  0.912E-04    1.36      25.9  T
   8    -28.6261905 -0.236832E-08  0.534E-04    1.36      44.1  T
     SCC iter.                  ...        0 min,  0.871 sec
     gradient                   ...        0 min,  0.129 sec
 * total energy  :   -28.3079308 Eh     change       -0.1917379E-03 Eh
   gradient norm :     0.0126066 Eh/α   predicted    -0.1589222E-03 ( -17.11%)
   displ. norm   :     0.2238092 α      lambda       -0.1972957E-03
   maximum displ.:     0.1166117 α      in ANC's #2, #3, #5, ...

........................................................................
.............................. CYCLE   34 ..............................
........................................................................

 iter      E             dE          RMSdq      gap      omega  full diag
   1    -28.6254085 -0.286254E+02  0.618E-02    1.36       0.0  T
   2    -28.6254091 -0.594717E-06  0.361E-02    1.36       1.0  T
   3    -28.6253964  0.126441E-04  0.294E-02    1.36       1.0  T
   4    -28.6254085 -0.120578E-04  0.114E-02    1.36       2.1  T
   5    -28.6254105 -0.208090E-05  0.307E-03    1.36       7.7  T
   6    -28.6254106 -0.570625E-07  0.135E-03    1.36      17.5  T
   7    -28.6254106 -0.178665E-07  0.612E-04    1.36      38.5  T
   8    -28.6254106 -0.114824E-08  0.347E-04    1.36      68.0  T
     SCC iter.                  ...        0 min,  0.787 sec
     gradient                   ...        0 min,  0.174 sec
 * total energy  :   -28.3080656 Eh     change       -0.1348240E-03 Eh
   gradient norm :     0.0111694 Eh/α   predicted    -0.1035903E-03 ( -23.17%)
   displ. norm   :     0.2687842 α      lambda       -0.2838811E-03
   maximum displ.:     0.1538091 α      in ANC's #2, #3, #1, ...

........................................................................
.............................. CYCLE   35 ..............................
........................................................................

 iter      E             dE          RMSdq      gap      omega  full diag
   1    -28.6262574 -0.286263E+02  0.755E-02    1.36       0.0  T
   2    -28.6262517  0.576376E-05  0.520E-02    1.36       1.0  T
   3    -28.6262289  0.227931E-04  0.505E-02    1.36       1.0  T
   4    -28.6262630 -0.340981E-04  0.141E-02    1.36       1.7  T
   5    -28.6262658 -0.281071E-05  0.296E-03    1.36       8.0  T
   6    -28.6262658 -0.121594E-07  0.156E-03    1.36      15.1  T
   7    -28.6262658 -0.185790E-07  0.784E-04    1.36      30.1  T
   8    -28.6262658 -0.423612E-08  0.370E-04    1.36      63.7  T
     SCC iter.                  ...        0 min,  0.867 sec
     gradient                   ...        0 min,  0.226 sec
 * total energy  :   -28.3082760 Eh     change       -0.2103574E-03 Eh
   gradient norm :     0.0089951 Eh/α   predicted    -0.1521955E-03 ( -27.65%)
   displ. norm   :     0.2584665 α      lambda       -0.3547972E-03
   maximum displ.:     0.1198946 α      in ANC's #3, #1, #8, ...

........................................................................
.............................. CYCLE   36 ..............................
........................................................................

 iter      E             dE          RMSdq      gap      omega  full diag
   1    -28.6282075 -0.286282E+02  0.866E-02    1.36       0.0  T
   2    -28.6282117 -0.421906E-05  0.494E-02    1.36       1.0  T
   3    -28.6281982  0.134907E-04  0.326E-02    1.36       1.0  T
   4    -28.6282089 -0.106298E-04  0.169E-02    1.36       1.4  T
   5    -28.6282135 -0.459359E-05  0.445E-03    1.36       5.3  T
   6    -28.6282136 -0.129726E-06  0.211E-03    1.36      11.2  T
   7    -28.6282136 -0.298669E-07  0.844E-04    1.36      27.9  T
   8    -28.6282136 -0.644054E-08  0.473E-04    1.36      49.8  T
     SCC iter.                  ...        0 min,  0.836 sec
     gradient                   ...        0 min,  0.161 sec
 * total energy  :   -28.3084887 Eh     change       -0.2127325E-03 Eh
   gradient norm :     0.0079030 Eh/α   predicted    -0.1892507E-03 ( -11.04%)
   displ. norm   :     0.4878523 α      lambda       -0.2814501E-03
   maximum displ.:     0.2530777 α      in ANC's #3, #1, #8, ...

........................................................................
.............................. CYCLE   37 ..............................
........................................................................

 iter      E             dE          RMSdq      gap      omega  full diag
   1    -28.6199140 -0.286199E+02  0.180E-01    1.37       0.0  T
   2    -28.6197719  0.142166E-03  0.164E-01    1.36       1.0  T
   3    -28.6200047 -0.232812E-03  0.866E-02    1.37       1.0  T
   4    -28.6200365 -0.318219E-04  0.497E-02    1.37       1.0  T
   5    -28.6200726 -0.361306E-04  0.128E-02    1.37       1.8  T
   6    -28.6200744 -0.173565E-05  0.588E-03    1.37       4.0  T
   7    -28.6200746 -0.234643E-06  0.212E-03    1.37      11.1  T
   8    -28.6200746 -0.149983E-07  0.975E-04    1.37      24.2  T
   9    -28.6200746 -0.357816E-08  0.313E-04    1.37      75.3  T
     SCC iter.                  ...        0 min,  0.753 sec
     gradient                   ...        0 min,  0.075 sec
 * total energy  :   -28.3082201 Eh     change        0.2685576E-03 Eh
   gradient norm :     0.0237365 Eh/α   predicted    -0.1742190E-03 (-164.87%)
   displ. norm   :     0.1937713 α      lambda       -0.1075568E-02
   maximum displ.:     0.0919701 α      in ANC's #3, #5, #1, ...

........................................................................
.............................. CYCLE   38 ..............................
........................................................................

 iter      E             dE          RMSdq      gap      omega  full diag
   1    -28.6305553 -0.286306E+02  0.113E-01    1.37       0.0  T
   2    -28.6305113  0.439390E-04  0.968E-02    1.37       1.0  T
   3    -28.6305748 -0.634632E-04  0.600E-02    1.37       1.0  T
   4    -28.6306046 -0.298421E-04  0.245E-02    1.37       1.0  T
   5    -28.6306116 -0.696484E-05  0.983E-03    1.37       2.4  T
   6    -28.6306129 -0.128319E-05  0.348E-03    1.37       6.8  T
   7    -28.6306130 -0.685895E-07  0.119E-03    1.37      19.7  T
   8    -28.6306130 -0.905798E-08  0.556E-04    1.37      42.4  T
   9    -28.6306130 -0.157036E-08  0.152E-04    1.37     155.3  T
     SCC iter.                  ...        0 min,  0.828 sec
     gradient                   ...        0 min,  0.126 sec
 * total energy  :   -28.3086275 Eh     change       -0.4073243E-03 Eh
   gradient norm :     0.0091477 Eh/α   predicted    -0.5579794E-03 (  36.99%)
   displ. norm   :     0.0674280 α      lambda       -0.1942576E-03
   maximum displ.:     0.0396721 α      in ANC's #6, #5, #2, ...

........................................................................
.............................. CYCLE   39 ..............................
........................................................................

 iter      E             dE          RMSdq      gap      omega  full diag
   1    -28.6291284 -0.286291E+02  0.431E-02    1.36       0.0  T
   2    -28.6291281  0.300485E-06  0.297E-02    1.36       1.0  T
   3    -28.6291264  0.166477E-05  0.239E-02    1.36       1.0  T
   4    -28.6291308 -0.437450E-05  0.121E-02    1.36       2.0  T
   5    -28.6291331 -0.230553E-05  0.221E-03    1.36      10.7  T
   6    -28.6291332 -0.432042E-07  0.117E-03    1.36      20.1  T
   7    -28.6291332 -0.109423E-07  0.520E-04    1.36      45.3  T
   8    -28.6291332 -0.126035E-08  0.179E-04    1.36     131.5  T
     SCC iter.                  ...        0 min,  0.793 sec
     gradient                   ...        0 min,  0.149 sec
 * total energy  :   -28.3086890 Eh     change       -0.6154600E-04 Eh
   gradient norm :     0.0082876 Eh/α   predicted    -0.9756998E-04 (  58.53%)
   displ. norm   :     0.1323065 α      lambda       -0.9371425E-04
   maximum displ.:     0.0717188 α      in ANC's #3, #1, #8, ...

........................................................................
.............................. CYCLE   40 ..............................
........................................................................

 iter      E             dE          RMSdq      gap      omega  full diag
   1    -28.6286654 -0.286287E+02  0.480E-02    1.37       0.0  T
   2    -28.6286546  0.108440E-04  0.459E-02    1.36       1.0  T
   3    -28.6286747 -0.200962E-04  0.218E-02    1.36       1.1  T
   4    -28.6286754 -0.740582E-06  0.144E-02    1.36       1.6  T
   5    -28.6286785 -0.305140E-05  0.294E-03    1.36       8.0  T
   6    -28.6286786 -0.970463E-07  0.141E-03    1.36      16.8  T
   7    -28.6286786 -0.139796E-07  0.534E-04    1.36      44.1  T
   8    -28.6286786 -0.825487E-09  0.212E-04    1.36     111.2  T
     SCC iter.                  ...        0 min,  0.880 sec
     gradient                   ...        0 min,  0.175 sec
 * total energy  :   -28.3087567 Eh     change       -0.6767973E-04 Eh
   gradient norm :     0.0044005 Eh/α   predicted    -0.4767607E-04 ( -29.56%)
   displ. norm   :     0.2048485 α      lambda       -0.8101232E-04
   maximum displ.:     0.0969847 α      in ANC's #1, #3, #8, ...

........................................................................
.............................. CYCLE   41 ..............................
........................................................................

 iter      E             dE          RMSdq      gap      omega  full diag
   1    -28.6282068 -0.286282E+02  0.659E-02    1.36       0.0  T
   2    -28.6281923  0.144403E-04  0.551E-02    1.36       1.0  T
   3    -28.6282114 -0.191095E-04  0.349E-02    1.36       1.0  T
   4    -28.6282182 -0.672225E-05  0.174E-02    1.36       1.4  T
   5    -28.6282231 -0.489334E-05  0.383E-03    1.36       6.1  T
   6    -28.6282232 -0.159422E-06  0.186E-03    1.36      12.7  T
   7    -28.6282232 -0.228856E-07  0.729E-04    1.36      32.3  T
   8    -28.6282232 -0.124029E-08  0.310E-04    1.36      76.0  T
     SCC iter.                  ...        0 min,  1.919 sec
     gradient                   ...        0 min,  0.150 sec
 * total energy  :   -28.3088028 Eh     change       -0.4606467E-04 Eh
   gradient norm :     0.0063874 Eh/α   predicted    -0.4220232E-04 (  -8.38%)
   displ. norm   :     0.0822979 α      lambda       -0.5252632E-04
   maximum displ.:     0.0407339 α      in ANC's #3, #8, #5, ...

........................................................................
.............................. CYCLE   42 ..............................
........................................................................

 iter      E             dE          RMSdq      gap      omega  full diag
   1    -28.6292817 -0.286293E+02  0.269E-02    1.36       0.0  T
   2    -28.6292791  0.262743E-05  0.223E-02    1.36       1.1  T
   3    -28.6292809 -0.186284E-05  0.158E-02    1.36       1.5  T
   4    -28.6292833 -0.237377E-05  0.442E-03    1.36       5.3  T
   5    -28.6292836 -0.279364E-06  0.109E-03    1.36      21.6  T
   6    -28.6292836 -0.582110E-08  0.647E-04    1.36      36.4  T
   7    -28.6292836 -0.378227E-08  0.211E-04    1.36     111.5  T
     SCC iter.                  ...        0 min,  0.755 sec
     gradient                   ...        0 min,  0.170 sec
 * total energy  :   -28.3088413 Eh     change       -0.3857075E-04 Eh
   gradient norm :     0.0031792 Eh/α   predicted    -0.2644020E-04 ( -31.45%)
   displ. norm   :     0.1611959 α      lambda       -0.7116306E-04
   maximum displ.:     0.0698968 α      in ANC's #3, #5, #8, ...
 * RMSD in coord.:     0.8001737 α      energy gain  -0.6812961E-02 Eh

generating ANC from exact Hessian ...
Using Lindh-Hessian (1995)
 Shifting diagonal of input Hessian by    1.7289450716054550E-002
 Lowest  eigenvalues of input Hessian
    0.010000    0.000000    0.000000    0.000000    0.000000    0.000000
    0.000000    0.019257    0.020798    0.021765    0.026810    0.028751
    0.032946    0.034281    0.037131    0.041408    0.043187    0.052123
 Highest eigenvalues
    1.811173    2.034786    2.129197    2.301473    3.188813    3.990655


........................................................................
.............................. CYCLE   43 ..............................
........................................................................

 iter      E             dE          RMSdq      gap      omega  full diag
   1    -28.6301084 -0.286301E+02  0.433E-02    1.35       0.0  T
   2    -28.6301084 -0.190038E-07  0.262E-02    1.36       1.0  T
   3    -28.6300987  0.967691E-05  0.240E-02    1.35       1.0  T
   4    -28.6301088 -0.100750E-04  0.561E-03    1.35       4.2  T
   5    -28.6301092 -0.386708E-06  0.133E-03    1.36      17.7  T
   6    -28.6301092 -0.220163E-08  0.495E-04    1.36      47.7  T
   7    -28.6301092 -0.395413E-09  0.281E-04    1.36      83.8  T
     SCC iter.                  ...        0 min,  0.708 sec
     gradient                   ...        0 min,  0.148 sec
 * total energy  :   -28.3088902 Eh     change       -0.4889122E-04 Eh
   gradient norm :     0.0029595 Eh/α   predicted     0.0000000E+00 (-100.00%)
   displ. norm   :     0.0586670 α      lambda       -0.5918228E-04
   maximum displ.:     0.0506872 α      in ANC's #1, #3, #6, ...

........................................................................
.............................. CYCLE   44 ..............................
........................................................................

 iter      E             dE          RMSdq      gap      omega  full diag
   1    -28.6301254 -0.286301E+02  0.280E-02    1.35       0.0  T
   2    -28.6301251  0.352725E-06  0.172E-02    1.35       1.4  T
   3    -28.6301235  0.154449E-05  0.158E-02    1.35       1.5  T
   4    -28.6301265 -0.301671E-05  0.776E-03    1.35       3.0  T
   5    -28.6301273 -0.743808E-06  0.201E-03    1.35      11.7  T
   6    -28.6301273 -0.135237E-07  0.968E-04    1.35      24.4  T
   7    -28.6301273 -0.749763E-08  0.321E-04    1.35      73.3  T
     SCC iter.                  ...        0 min,  0.850 sec
     gradient                   ...        0 min,  0.169 sec
 * total energy  :   -28.3089374 Eh     change       -0.4717481E-04 Eh
   gradient norm :     0.0017291 Eh/α   predicted    -0.2969426E-04 ( -37.05%)
   displ. norm   :     0.2571808 α      lambda       -0.1451457E-03
   maximum displ.:     0.1868955 α      in ANC's #1, #3, #5, ...

........................................................................
.............................. CYCLE   45 ..............................
........................................................................

 iter      E             dE          RMSdq      gap      omega  full diag
   1    -28.6292369 -0.286292E+02  0.114E-01    1.33       0.0  T
   2    -28.6292430 -0.613906E-05  0.632E-02    1.33       1.0  T
   3    -28.6292392  0.380091E-05  0.482E-02    1.33       1.0  T
   4    -28.6292625 -0.232783E-04  0.187E-02    1.33       1.3  T
   5    -28.6292653 -0.282585E-05  0.107E-02    1.33       2.2  T
   6    -28.6292665 -0.112555E-05  0.416E-03    1.33       5.7  T
   7    -28.6292666 -0.159956E-06  0.160E-03    1.33      14.8  T
   8    -28.6292666 -0.129267E-07  0.896E-04    1.33      26.3  T
   9    -28.6292666 -0.222733E-08  0.147E-04    1.33     160.6  T
     SCC iter.                  ...        0 min,  0.712 sec
     gradient                   ...        0 min,  0.100 sec
 * total energy  :   -28.3089877 Eh     change       -0.5030586E-04 Eh
   gradient norm :     0.0110132 Eh/α   predicted    -0.7470907E-04 (  48.51%)
   displ. norm   :     0.0298357 α      lambda       -0.8935966E-04
   maximum displ.:     0.0138586 α      in ANC's #3, #11, #12, ...

........................................................................
.............................. CYCLE   46 ..............................
........................................................................

 iter      E             dE          RMSdq      gap      omega  full diag
   1    -28.6295885 -0.286296E+02  0.275E-02    1.33       0.0  T
   2    -28.6295880  0.569743E-06  0.166E-02    1.33       1.4  T
   3    -28.6295849  0.309869E-05  0.172E-02    1.33       1.4  T
   4    -28.6295896 -0.475504E-05  0.480E-03    1.33       4.9  T
   5    -28.6295899 -0.284353E-06  0.213E-03    1.33      11.1  T
   6    -28.6295899 -0.145758E-07  0.919E-04    1.33      25.7  T
   7    -28.6295899 -0.579830E-08  0.471E-04    1.33      50.0  T
     SCC iter.                  ...        0 min,  0.635 sec
     gradient                   ...        0 min,  0.105 sec
 * total energy  :   -28.3090540 Eh     change       -0.6629801E-04 Eh
   gradient norm :     0.0066516 Eh/α   predicted    -0.4471961E-04 ( -32.55%)
   displ. norm   :     0.0787969 α      lambda       -0.9477360E-04
   maximum displ.:     0.0531005 α      in ANC's #3, #5, #1, ...

........................................................................
.............................. CYCLE   47 ..............................
........................................................................

 iter      E             dE          RMSdq      gap      omega  full diag
   1    -28.6299334 -0.286299E+02  0.348E-02    1.33       0.0  T
   2    -28.6299230  0.104528E-04  0.371E-02    1.33       1.0  T
   3    -28.6299391 -0.161534E-04  0.157E-02    1.33       1.5  T
   4    -28.6299397 -0.603663E-06  0.817E-03    1.33       2.9  T
   5    -28.6299407 -0.927596E-06  0.140E-03    1.33      16.9  T
   6    -28.6299407  0.418820E-08  0.105E-03    1.33      22.4  T
   7    -28.6299407 -0.114121E-07  0.392E-04    1.33      60.1  T
   8    -28.6299407 -0.579032E-09  0.193E-04    1.33     122.2  T
     SCC iter.                  ...        0 min,  0.749 sec
     gradient                   ...        0 min,  0.127 sec
 * total energy  :   -28.3091192 Eh     change       -0.6524628E-04 Eh
   gradient norm :     0.0027630 Eh/α   predicted    -0.4768151E-04 ( -26.92%)
   displ. norm   :     0.1686460 α      lambda       -0.8081211E-04
   maximum displ.:     0.1035543 α      in ANC's #3, #1, #5, ...

........................................................................
.............................. CYCLE   48 ..............................
........................................................................

 iter      E             dE          RMSdq      gap      omega  full diag
   1    -28.6295639 -0.286296E+02  0.542E-02    1.33       0.0  T
   2    -28.6295552  0.863801E-05  0.447E-02    1.33       1.0  T
   3    -28.6295632 -0.794117E-05  0.302E-02    1.33       1.0  T
   4    -28.6295692 -0.602428E-05  0.133E-02    1.33       1.8  T
   5    -28.6295721 -0.294204E-05  0.265E-03    1.33       8.9  T
   6    -28.6295722 -0.205303E-07  0.183E-03    1.33      12.9  T
   7    -28.6295722 -0.297342E-07  0.646E-04    1.33      36.5  T
   8    -28.6295722 -0.695586E-09  0.251E-04    1.33      93.9  T
     SCC iter.                  ...        0 min,  0.714 sec
     gradient                   ...        0 min,  0.156 sec
 * total energy  :   -28.3091812 Eh     change       -0.6193906E-04 Eh
   gradient norm :     0.0033477 Eh/α   predicted    -0.4155393E-04 ( -32.91%)
   displ. norm   :     0.2915360 α      lambda       -0.1206004E-03
   maximum displ.:     0.1797201 α      in ANC's #3, #1, #5, ...

........................................................................
.............................. CYCLE   49 ..............................
........................................................................

 iter      E             dE          RMSdq      gap      omega  full diag
   1    -28.6283361 -0.286283E+02  0.931E-02    1.32       0.0  T
   2    -28.6283135  0.226089E-04  0.739E-02    1.32       1.0  T
   3    -28.6283294 -0.159874E-04  0.526E-02    1.32       1.0  T
   4    -28.6283502 -0.207446E-04  0.225E-02    1.32       1.0  T
   5    -28.6283589 -0.868726E-05  0.491E-03    1.32       4.8  T
   6    -28.6283590 -0.118674E-06  0.282E-03    1.32       8.4  T
   7    -28.6283591 -0.610779E-07  0.921E-04    1.32      25.6  T
   8    -28.6283591 -0.183230E-08  0.469E-04    1.32      50.3  T
     SCC iter.                  ...        0 min,  0.802 sec
     gradient                   ...        0 min,  0.152 sec
 * total energy  :   -28.3092585 Eh     change       -0.7730539E-04 Eh
   gradient norm :     0.0060399 Eh/α   predicted    -0.6542321E-04 ( -15.37%)
   displ. norm   :     0.1486360 α      lambda       -0.8412740E-04
   maximum displ.:     0.0826343 α      in ANC's #3, #1, #6, ...

........................................................................
.............................. CYCLE   50 ..............................
........................................................................

 iter      E             dE          RMSdq      gap      omega  full diag
   1    -28.6287390 -0.286287E+02  0.478E-02    1.32       0.0  T
   2    -28.6287352  0.375236E-05  0.347E-02    1.32       1.0  T
   3    -28.6287336  0.165542E-05  0.286E-02    1.32       1.0  T
   4    -28.6287415 -0.798485E-05  0.105E-02    1.32       2.3  T
   5    -28.6287435 -0.196980E-05  0.286E-03    1.32       8.2  T
   6    -28.6287435 -0.383480E-07  0.123E-03    1.32      19.1  T
   7    -28.6287436 -0.112033E-07  0.412E-04    1.32      57.3  T
   8    -28.6287436 -0.439641E-09  0.258E-04    1.32      91.3  T
     SCC iter.                  ...        0 min,  0.958 sec
     gradient                   ...        0 min,  0.172 sec
 * total energy  :   -28.3093252 Eh     change       -0.6670796E-04 Eh
   gradient norm :     0.0047664 Eh/α   predicted    -0.4299354E-04 ( -35.55%)
   displ. norm   :     0.1856121 α      lambda       -0.1085791E-03
   maximum displ.:     0.0968093 α      in ANC's #3, #1, #6, ...

........................................................................
.............................. CYCLE   51 ..............................
........................................................................

 iter      E             dE          RMSdq      gap      omega  full diag
   1    -28.6299197 -0.286299E+02  0.577E-02    1.32       0.0  T
   2    -28.6299187  0.989310E-06  0.370E-02    1.32       1.0  T
   3    -28.6299050  0.137504E-04  0.358E-02    1.32       1.0  T
   4    -28.6299212 -0.161888E-04  0.102E-02    1.32       2.3  T
   5    -28.6299231 -0.192450E-05  0.335E-03    1.32       7.0  T
   6    -28.6299232 -0.873192E-07  0.111E-03    1.32      21.3  T
   7    -28.6299232 -0.659011E-08  0.433E-04    1.32      54.4  T
   8    -28.6299232 -0.550280E-09  0.234E-04    1.32     100.7  T
     SCC iter.                  ...        0 min,  0.826 sec
     gradient                   ...        0 min,  0.146 sec
 * total energy  :   -28.3093954 Eh     change       -0.7025685E-04 Eh
   gradient norm :     0.0030729 Eh/α   predicted    -0.5615755E-04 ( -20.07%)
   displ. norm   :     0.2395488 α      lambda       -0.5320721E-04
   maximum displ.:     0.1436196 α      in ANC's #3, #1, #6, ...

........................................................................
[...]
 * total energy  :   -28.3095492 Eh     change       -0.2776153E-05 Eh
   gradient norm :     0.0006375 Eh/α   predicted    -0.1169787E-05 ( -57.86%)
   displ. norm   :     0.0430238 α      lambda       -0.2791850E-05
   maximum displ.:     0.0260062 α      in ANC's #1, #2, #3, ...

   *** GEOMETRY OPTIMIZATION CONVERGED AFTER 64 ITERATIONS ***

------------------------------------------------------------------------
 total energy gain   :        -1.3813429 Eh     -866.8058 kcal/mol
 total RMSD          :         1.1695068 a0        0.6189 Å
 total power (kW/mol):       -56.6674266 (step)  -41.0558 (real)
------------------------------------------------------------------------

 ANCopt (total)                0 d,  0 h,  1 min, 28.336 sec
 optimizer setup                ...        0 min,  0.000 sec (  0.001%)
 model hessian                  ...        0 min,  0.010 sec (  0.011%)
 ANC generation                 ...        0 min,  0.008 sec (  0.009%)
 coordinate transformation      ...        0 min,  0.001 sec (  0.001%)
 single point calculation       ...        1 min, 27.451 sec ( 98.998%)
 optimization log               ...        0 min,  0.021 sec (  0.024%)
 hessian update                 ...        0 min,  0.762 sec (  0.862%)
 rational function              ...        0 min,  0.025 sec (  0.028%)

================
 final structure:
================
18
 xtb: 6.7.1 (edcfbbe)
C           -3.05265604247619        0.29590728534551       -0.30734768306806
C           -1.60438882048182        0.07869775696962       -0.24586592366292
C           -0.80333401641686       -0.87439207517267       -0.73238830690210
C            0.59490337647052       -0.96037846446551       -0.55333270257503
N            1.38709562149425        0.06220333203918       -0.21717914746366
C            2.72759429867555       -0.20012768734395        0.27408795125339
N            0.92209283065396        1.30087514062124       -0.22046070388113
S           -0.58970075124240        1.32884968734916        1.36918160598280
O            0.04160075291376        0.34643978900268        2.25995214835617
H           -3.27158451152012        1.32603928521563       -0.59011379418297
H           -3.51232152706022        0.11371567254003        0.66489000767191
H           -3.50836102151295       -0.37389553868178       -1.03944727383594
H           -1.24744217049336       -1.68994915079976       -1.30322672026617
H            1.08622698369138       -1.90849877672813       -0.69833933960229
H            3.05141562463371       -1.19382201465795       -0.02611264305877
H            3.42006579239760        0.54082496401399       -0.12961395011686
H            2.73485440247096       -0.14076736992495        1.36508133171746
H            1.62394017780100        1.94827816467568        0.13023514363324

 Bond Distances (Angstroems)
 ---------------------------
C1-C2=1.4658         C1-H10=1.0904        C1-H11=1.0907        C1-H12=1.0919        C2-C1=1.4658         C2-C3=1.3367         
C2-S8=2.2805         C3-C2=1.3367         C3-C4=1.4123         C3-H13=1.0901        C4-C3=1.4123         C4-N5=1.3365         
C4-H14=1.0777        N5-C4=1.3365         N5-C6=1.4516         N5-N7=1.3231         C6-N5=1.4516         C6-H15=1.0874        
C6-H16=1.0916        C6-H17=1.0926        N7-N5=1.3231         N7-S8=2.1939         N7-H18=1.0172        S8-C2=2.2805         
S8-N7=2.1939         S8-O9=1.4687         O9-S8=1.4687         H10-C1=1.0904        H11-C1=1.0907        H12-C1=1.0919        
H13-C3=1.0901        H14-C4=1.0777        H15-C6=1.0874        H16-C6=1.0916        H17-C6=1.0926        H18-N7=1.0172        
 C  H  Rav=1.0890 sigma=0.0045  Rmin=1.0777  Rmax=1.0926     8
 C  C  Rav=1.4049 sigma=0.0529  Rmin=1.3367  Rmax=1.4658     3
 N  H  Rav=1.0172 sigma=0.0000  Rmin=1.0172  Rmax=1.0172     1
 N  C  Rav=1.3940 sigma=0.0575  Rmin=1.3365  Rmax=1.4516     2
 N  N  Rav=1.3231 sigma=0.0000  Rmin=1.3231  Rmax=1.3231     1
 S  C  Rav=2.2805 sigma=0.0000  Rmin=2.2805  Rmax=2.2805     1
 S  N  Rav=2.1939 sigma=0.0000  Rmin=2.1939  Rmax=2.1939     1
 S  O  Rav=1.4687 sigma=0.0000  Rmin=1.4687  Rmax=1.4687     1

 selected bond angles (degree)
 --------------------
H10-C1-C2=110.44               H11-C1-C2=110.75               H11-C1-H10=107.72              H12-C1-C2=110.46               
H12-C1-H10=108.77              H12-C1-H11=108.62              C3-C2-C1=133.04                S8-C2-C1=112.84                
S8-C2-C3=112.46                C4-C3-C2=126.20                H13-C3-C2=118.68               H13-C3-C4=115.10               
N5-C4-C3=124.90                H14-C4-C3=119.20               H14-C4-N5=115.90               C6-N5-C4=119.62                
N7-N5-C4=120.49                N7-N5-C6=119.64                H15-C6-N5=110.29               H16-C6-N5=109.76               
H16-C6-H15=109.23              H17-C6-N5=109.53               H17-C6-H15=108.86              H17-C6-H16=109.16              
S8-N7-N5=104.61                H18-N7-N5=110.64               H18-N7-S8=102.56               N7-S8-C2= 77.67                
O9-S8-C2=104.72                O9-S8-N7= 97.74                

 selected dihedral angles (degree)
 ---------------------------------
C3-C2-C1-H10=227.67           C3-C2-C1-H11=108.43           C3-C2-C1-H12=348.05           S8-C2-C1-H10= 63.86           
S8-C2-C1-H11=304.62           S8-C2-C1-H12=184.24           C4-C3-C2-C1=181.80            C4-C3-C2-S8=345.65            
H13-C3-C2-C1=  0.04           H13-C3-C2-S8=163.89           N5-C4-C3-C2=339.46            N5-C4-C3-H13=161.17           
H14-C4-C3-C2=159.86           H14-C4-C3-H13=341.57          C6-N5-C4-C3=164.02            C6-N5-C4-H14=343.63           
N7-N5-C4-C3=349.79            N7-N5-C4-H14=169.40           H15-C6-N5-C4= 20.56           H15-C6-N5-N7=194.84           
H16-C6-N5-C4=140.94           H16-C6-N5-N7=315.22           H17-C6-N5-C4=260.77           H17-C6-N5-N7= 75.05           
S8-N7-N5-C4= 65.60            S8-N7-N5-C6=251.37            H18-N7-N5-C4=175.38           H18-N7-N5-C6=  1.15           
           -------------------------------------------------
          |                Final Singlepoint                |
           -------------------------------------------------

          ...................................................
          :                      SETUP                      :
          :.................................................:
          :  # basis functions                  51          :
          :  # atomic orbitals                  50          :
          :  # shells                           28          :
          :  # electrons                        51          :
          :  max. iterations                   250          :
          :  Hamiltonian                  GFN2-xTB          :
          :  restarted?                      false          :
          :  GBSA solvation                  false          :
          :  PC potential                    false          :
          :  electronic temp.          300.0000000     K    :
          :  accuracy                    1.0000000          :
          :  -> integral cutoff          0.2500000E+02      :
          :  -> integral neglect         0.1000000E-07      :
          :  -> SCF convergence          0.1000000E-05 Eh   :
          :  -> wf. convergence          0.1000000E-03 e    :
          :  Broyden damping             0.4000000          :
          :  net charge                          0          :
          :  unpaired electrons                  0          :
          ...................................................

 iter      E             dE          RMSdq      gap      omega  full diag
   1    -28.6306050 -0.286306E+02  0.806E-05    1.31       0.0  T
   2    -28.6306050 -0.190070E-11  0.597E-05    1.31     395.0  T
   3    -28.6306050  0.638067E-11  0.482E-05    1.31     489.2  T

   *** convergence criteria satisfied after 3 iterations ***

         #    Occupation            Energy/Eh            Energy/eV
      -------------------------------------------------------------
         1        2.0000           -0.7212229             -19.6255
       ...           ...                  ...                  ...
        20        2.0000           -0.4629586             -12.5977
        21        2.0000           -0.4527288             -12.3194
        22        2.0000           -0.4160695             -11.3218
        23        2.0000           -0.4074387             -11.0870
        24        2.0000           -0.3606312              -9.8133
        25        2.0000           -0.3546208              -9.6497
        26        1.0000           -0.2946192              -8.0170 (HOMO)
        27                         -0.2463077              -6.7024 (LUMO)
        28                         -0.2319994              -6.3130
        29                         -0.1554390              -4.2297
        30                         -0.1165128              -3.1705
        31                         -0.0030751              -0.0837
       ...                                ...                  ...
        50                          0.8559936              23.2928
      -------------------------------------------------------------
                  HL-Gap            0.0483114 Eh            1.3146 eV
             Fermi-level           -0.2975417 Eh           -8.0965 eV

 SCC (total)                   0 d,  0 h,  0 min,  0.525 sec
 SCC setup                      ...        0 min,  0.009 sec (  1.624%)
 Dispersion                     ...        0 min,  0.027 sec (  5.144%)
 classical contributions        ...        0 min,  0.008 sec (  1.567%)
 integral evaluation            ...        0 min,  0.044 sec (  8.427%)
 iterations                     ...        0 min,  0.298 sec ( 56.710%)
 molecular gradient             ...        0 min,  0.139 sec ( 26.449%)
 printout                       ...        0 min,  0.000 sec (  0.076%)

         :::::::::::::::::::::::::::::::::::::::::::::::::::::
         ::                     SUMMARY                     ::
         :::::::::::::::::::::::::::::::::::::::::::::::::::::
         :: total energy             -28.309549176528 Eh    ::
         :: gradient norm              0.000640723895 Eh/a0 ::
         :: HOMO-LUMO gap              1.314620537169 eV    ::
         ::.................................................::
         :: SCC energy               -28.630560192666 Eh    ::
         :: -> isotropic ES            0.042083390321 Eh    ::
         :: -> anisotropic ES          0.002025888612 Eh    ::
         :: -> anisotropic XC          0.015460163932 Eh    ::
         :: -> dispersion             -0.015666831080 Eh    ::
         :: repulsion energy           0.319823112830 Eh    ::
         :: add. restraining           0.001187903308 Eh    ::
         :: total charge               0.000000000000 e     ::
         :::::::::::::::::::::::::::::::::::::::::::::::::::::

           -------------------------------------------------
          |                Property Printout                |
           -------------------------------------------------

    * Orbital Energies and Occupations

         #    Occupation            Energy/Eh            Energy/eV
      -------------------------------------------------------------
         1        2.0000           -0.7212229             -19.6255
       ...           ...                  ...                  ...
        14        2.0000           -0.4967190             -13.5164
        15        2.0000           -0.4885837             -13.2950
        16        2.0000           -0.4871702             -13.2566
        17        2.0000           -0.4805501             -13.0764
        18        2.0000           -0.4723985             -12.8546
        19        2.0000           -0.4684154             -12.7462
        20        2.0000           -0.4629586             -12.5977
        21        2.0000           -0.4527288             -12.3194
        22        2.0000           -0.4160695             -11.3218
        23        2.0000           -0.4074387             -11.0870
        24        2.0000           -0.3606312              -9.8133
        25        2.0000           -0.3546208              -9.6497
        26        1.0000           -0.2946192              -8.0170 (HOMO)
        27                         -0.2463077              -6.7024 (LUMO)
        28                         -0.2319994              -6.3130
        29                         -0.1554390              -4.2297
        30                         -0.1165128              -3.1705
        31                         -0.0030751              -0.0837
        32                          0.0082989               0.2258
        33                          0.0623809               1.6975
        34                          0.0716030               1.9484
        35                          0.1117238               3.0402
        36                          0.1131835               3.0799
        37                          0.1266891               3.4474
       ...                                ...                  ...
        50                          0.8559936              23.2928
      -------------------------------------------------------------
                  HL-Gap            0.0483114 Eh            1.3146 eV
             Fermi-level           -0.2975417 Eh           -8.0965 eV

     #   Z          covCN         q      C6AA      α(0)
     1   6 C        3.753    -0.100    22.463     6.758
     2   6 C        2.592    -0.037    28.938     8.796
     3   6 C        2.891    -0.039    28.975     8.825
     4   6 C        2.861    -0.019    28.480     8.747
     5   7 N        2.808     0.125    19.111     6.493
     6   6 C        3.701    -0.065    21.907     6.693
     7   7 N        2.507    -0.297    27.710     7.818
     8  16 S        2.131     0.287   129.889    19.182
     9   8 O        0.859    -0.443    22.560     6.368
    10   1 H        0.924     0.057     2.233     2.337
    11   1 H        0.924     0.057     2.233     2.337
    12   1 H        0.924     0.051     2.309     2.376
    13   1 H        0.925     0.040     2.444     2.445
    14   1 H        0.926     0.039     2.463     2.454
    15   1 H        0.925     0.064     2.151     2.293
    16   1 H        0.924     0.060     2.203     2.321
    17   1 H        0.924     0.078     1.996     2.209
    18   1 H        0.860     0.142     1.455     1.889

 Mol. C6AA /au·bohr⁶  :       4139.805560
 Mol. C8AA /au·bohr⁸  :     108006.000604
 Mol. α(0) /au        :        100.342586


Wiberg/Mayer (AO) data.
largest (>0.10) Wiberg bond orders for each atom

 ---------------------------------------------------------------------------
     #   Z sym  total        # sym  WBO       # sym  WBO       # sym  WBO
 ---------------------------------------------------------------------------
     1   6 C    3.997 --     2 C    1.068    10 H    0.963    12 H    0.962
                            11 H    0.960
     2   6 C    3.902 --     3 C    1.683     1 C    1.068     8 S    0.820
                             9 O    0.140
     3   6 C    3.986 --     2 C    1.683     4 C    1.252    13 H    0.930
     4   6 C    3.907 --     5 N    1.319     3 C    1.252    14 H    0.963
                             7 N    0.140
     5   7 N    3.703 --     4 C    1.319     7 N    1.210     6 C    0.985
     6   6 C    3.970 --     5 N    0.985    15 H    0.978    16 H    0.977
                            17 H    0.968
     7   7 N    3.031 --     5 N    1.210    18 H    0.956     8 S    0.507
                             4 C    0.140
     8  16 S    3.437 --     9 O    1.806     2 C    0.820     7 N    0.507
     9   8 O    2.106 --     8 S    1.806     2 C    0.140
    10   1 H    0.996 --     1 C    0.963
    11   1 H    0.996 --     1 C    0.960
    12   1 H    0.997 --     1 C    0.962
    13   1 H    0.998 --     3 C    0.930
    14   1 H    0.998 --     4 C    0.963
    15   1 H    0.996 --     6 C    0.978
    16   1 H    0.996 --     6 C    0.977
    17   1 H    0.993 --     6 C    0.968
    18   1 H    0.980 --     7 N    0.956
 ---------------------------------------------------------------------------

Topologies differ in total number of bonds
Writing topology from bond orders to xtbtopo.mol

molecular dipole:
                 x           y           z       tot (Debye)
 q only:        0.358       0.047      -0.984
   full:        0.687      -0.214      -0.789       2.715
molecular quadrupole (traceless):
                xx          xy          yy          xz          yz          zz
 q only:       11.146      -1.966       0.713       0.352       2.014     -11.859
  q+dip:       13.082      -0.037      -0.027       0.820       4.288     -13.056
   full:       12.888       0.146      -0.332       0.764       3.563     -12.556

           -------------------------------------------------
          |                Geometry Summary                 |
           -------------------------------------------------

      molecular mass/u    :      145.2027450
   center of mass at/Å    :       -0.0771106       0.3162061       0.3684228
  moments of inertia/u·Å² :        0.2439682E+03   0.4185349E+03   0.5558499E+03
rotational constants/cm⁻¹ :        0.6909765E-01   0.4027773E-01   0.3032767E-01

 * 15 selected distances

     #   Z          #   Z                                           value/Å
     1   6 C        2   6 C                                       1.4657552 (max)
     2   6 C        3   6 C                                       1.3367024
     3   6 C        4   6 C                                       1.4122757
     4   6 C        5   7 N                                       1.3365035
     5   7 N        6   6 C                                       1.4515847
     5   7 N        7   7 N                                       1.3230822
     1   6 C       10   1 H                                       1.0904396
     1   6 C       11   1 H                                       1.0907486
     1   6 C       12   1 H                                       1.0919125
     3   6 C       13   1 H                                       1.0900560
     4   6 C       14   1 H                                       1.0776633
     6   6 C       15   1 H                                       1.0873864
     6   6 C       16   1 H                                       1.0915599
     6   6 C       17   1 H                                       1.0926313
     7   7 N       18   1 H                                       1.0172060 (min)

 * 5 distinct bonds (by element types)

   Z      Z             #   av. dist./Å        max./Å        min./Å
   1 H    6 C           8     1.0890497     1.0926313     1.0776633
   6 C    6 C           3     1.4049111     1.4657552     1.3367024
   1 H    7 N           1     1.0172060     1.0172060     1.0172060
   6 C    7 N           2     1.3940441     1.4515847     1.3365035
   7 N    7 N           1     1.3230822     1.3230822     1.3230822


optimized geometry written to: xtbopt.xyz


           -------------------------------------------------
          | TOTAL ENERGY              -28.309549176528 Eh   |
          | GRADIENT NORM               0.000640723895 Eh/α |
          | HOMO-LUMO GAP               1.314620537169 eV   |
           -------------------------------------------------

------------------------------------------------------------------------
 * finished run on 2026/01/15 at 09:11:03.997     
------------------------------------------------------------------------
 total:
 * wall-time:     0 d,  0 h,  1 min, 30.422 sec
 *  cpu-time:     0 d,  0 h,  5 min, 50.548 sec
 * ratio c/w:     3.877 speedup
 SCF:
 * wall-time:     0 d,  0 h,  0 min,  1.383 sec
 *  cpu-time:     0 d,  0 h,  0 min,  7.379 sec
 * ratio c/w:     5.337 speedup
 ANC optimizer:
 * wall-time:     0 d,  0 h,  1 min, 28.890 sec
 *  cpu-time:     0 d,  0 h,  5 min, 42.723 sec
 * ratio c/w:     3.856 speedup

