18
 energy: -28.309549176528 gnorm: 0.000640723895 xtb: 6.7.1 (edcfbbe)
C           -3.05265604247619        0.29590728534551       -0.30734768306806
C           -1.60438882048182        0.07869775696962       -0.24586592366292
C           -0.80333401641686       -0.87439207517267       -0.73238830690210
C            0.59490337647052       -0.96037846446551       -0.55333270257503
N            1.38709562149425        0.06220333203918       -0.21717914746366
C            2.72759429867555       -0.20012768734395        0.27408795125339
N            0.92209283065396        1.30087514062124       -0.22046070388113
S           -0.58970075124240        1.32884968734916        1.36918160598280
O            0.04160075291376        0.34643978900268        2.25995214835617
H           -3.27158451152012        1.32603928521563       -0.59011379418297
H           -3.51232152706022        0.11371567254003        0.66489000767191
H           -3.50836102151295       -0.37389553868178       -1.03944727383594
H           -1.24744217049336       -1.68994915079976       -1.30322672026617
H            1.08622698369138       -1.90849877672813       -0.69833933960229
H            3.05141562463371       -1.19382201465795       -0.02611264305877
H            3.42006579239760        0.54082496401399       -0.12961395011686
H            2.73485440247096       -0.14076736992495        1.36508133171746
H            1.62394017780100        1.94827816467568        0.13023514363324
