      -----------------------------------------------------------      
     |                   =====================                   |     
     |                           x T B                           |     
     |                   =====================                   |     
     |                         S. Grimme                         |     
     |          Mulliken Center for Theoretical Chemistry        |     
     |                    University of Bonn                     |     
      -----------------------------------------------------------      

   * xtb version 6.7.1 (edcfbbe) compiled by 'conda@c0858423619e' on 2025-09-04

   xtb is free software: you can redistribute it and/or modify it under
   the terms of the GNU Lesser General Public License as published by
   the Free Software Foundation, either version 3 of the License, or
   (at your option) any later version.
   
   xtb is distributed in the hope that it will be useful,
   but WITHOUT ANY WARRANTY; without even the implied warranty of
   MERCHANTABILITY or FITNESS FOR A PARTICULAR PURPOSE.  See the
   GNU Lesser General Public License for more details.
   
   Cite this work as:
   * C. Bannwarth, E. Caldeweyher, S. Ehlert, A. Hansen, P. Pracht,
     J. Seibert, S. Spicher, S. Grimme, WIREs Comput. Mol. Sci., 2020, 11,
     e01493. DOI: 10.1002/wcms.1493
   
   for GFN2-xTB:
   * C. Bannwarth, S. Ehlert and S. Grimme., J. Chem. Theory Comput., 2019,
     15, 1652-1671. DOI: 10.1021/acs.jctc.8b01176
   for GFN1-xTB:
   * S. Grimme, C. Bannwarth, P. Shushkov, J. Chem. Theory Comput., 2017,
     13, 1989-2009. DOI: 10.1021/acs.jctc.7b00118
   for GFN0-xTB:
   * P. Pracht, E. Caldeweyher, S. Ehlert, S. Grimme, ChemRxiv, 2019, preprint.
     DOI: 10.26434/chemrxiv.8326202.v1
   for GFN-FF:
   * S. Spicher and S. Grimme, Angew. Chem. Int. Ed., 2020, 59, 15665-15673.
     DOI: 10.1002/anie.202004239
   
   for ALPB and GBSA implicit solvation:
   * S. Ehlert, M. Stahn, S. Spicher, S. Grimme, J. Chem. Theory Comput.,
     2021, 17, 4250-4261. DOI: 10.1021/acs.jctc.1c00471
   
   for ddCOSMO and CPCM-X implicit solvation:
   * M. Stahn, S. Ehlert, S. Grimme, J. Phys. Chem. A,
     2023, XX, XXXX-XXXX. DOI: 10.1021/acs.jpca.3c04382
   
   for DFT-D4:
   * E. Caldeweyher, C. Bannwarth and S. Grimme, J. Chem. Phys., 2017,
     147, 034112. DOI: 10.1063/1.4993215
   * E. Caldeweyher, S. Ehlert, A. Hansen, H. Neugebauer, S. Spicher,
     C. Bannwarth and S. Grimme, J. Chem. Phys., 2019, 150, 154122.
     DOI: 10.1063/1.5090222
   * E. Caldeweyher, J.-M. Mewes, S. Ehlert and S. Grimme, Phys. Chem. Chem. Phys.
     2020, 22, 8499-8512. DOI: 10.1039/D0CP00502A
   
   for sTDA-xTB:
   * S. Grimme and C. Bannwarth, J. Chem. Phys., 2016, 145, 054103.
     DOI: 10.1063/1.4959605
   
   in the mass-spec context:
   * V. Asgeirsson, C. Bauer and S. Grimme, Chem. Sci., 2017, 8, 4879.
     DOI: 10.1039/c7sc00601b
   * J. Koopman and S. Grimme, ACS Omega 2019, 4, 12, 15120-15133.
     DOI: 10.1021/acsomega.9b02011
   
   for metadynamics refer to:
   * S. Grimme, J. Chem. Theory Comput., 2019, 155, 2847-2862
     DOI: 10.1021/acs.jctc.9b00143
   
   for SPH calculations refer to:
   * S. Spicher and S. Grimme, J. Chem. Theory Comput., 2021, 17, 1701-1714
     DOI: 10.1021/acs.jctc.0c01306
   
   for ONIOM refer to:
   * C. Plett, A. Katbashev, S. Ehlert, S. Grimme, M. Bursch,
     Phys. Chem. Chem. Phys., 2023, 25, 17860-17868. DOI: 10.1039/D3CP02178E
   
   for DIPRO refer to:
   * J. Kohn, N. Gildemeister, S. Grimme, D. Fazzi, A. Hansen,
     J. Chem. Phys., 2023, just accepted.
   
   for PTB refer to:
   * S. Grimme, M. Mueller, A. Hansen, J. Chem. Phys., 2023, 158, 124111.
     DOI: 10.1063/5.0137838
   
   with help from (in alphabetical order)
   P. Atkinson, C. Bannwarth, F. Bohle, G. Brandenburg, E. Caldeweyher
   M. Checinski, S. Dohm, S. Ehlert, S. Ehrlich, I. Gerasimov, C. Hölzer
   A. Katbashev, J. Kohn, J. Koopman, C. Lavigne, S. Lehtola, F. März, M. Müller,
   F. Musil, H. Neugebauer, J. Pisarek, C. Plett, P. Pracht, F. Pultar,
   J. Seibert, P. Shushkov, S. Spicher, M. Stahn, M. Steiner, T. Strunk,
   J. Stückrath, T. Rose, and J. Unsleber
   
 * started run on 2026/01/15 at 09:46:48.517     
   ID    Z sym.   atoms
    1    6 C      1-4, 7
    2    7 N      5, 6
    3   16 S      8
    4    8 O      9
    5    1 H      10-17
constraining bond 8 2 to    2.2000000 Å, actual value:    1.7719113 Å
constraining bond 8 6 to    2.1000000 Å, actual value:    1.7486639 Å
constraining bond 2 6 to    1.9000000 Å, actual value:    2.7337615 Å

           -------------------------------------------------
          |                Calculation Setup                |
           -------------------------------------------------

          program call               : /h/28/cicsy/miniforge3/envs/elagente/bin/xtb N5-Me_TDSO_pathwayA.xyz --opt --gfn 2 -P 4 --chrg 0 --input detailed_input.inp
          coordinate file            : N5-Me_TDSO_pathwayA.xyz
          omp threads                :                     4


           -------------------------------------------------
          |                 G F N 2 - x T B                 |
           -------------------------------------------------

        Reference                      10.1021/acs.jctc.8b01176
      * Hamiltonian:
        H0-scaling (s, p, d)           1.850000    2.230000    2.230000
        zeta-weighting                 0.500000
      * Dispersion:
        s8                             2.700000
        a1                             0.520000
        a2                             5.000000
        s9                             5.000000
      * Repulsion:
        kExp                           1.500000    1.000000
        rExp                           1.000000
      * Coulomb:
        alpha                          2.000000
        third order                    shell-resolved
        anisotropic                    true
        a3                             3.000000
        a5                             4.000000
        cn-shift                       1.200000
        cn-exp                         4.000000
        max-rad                        5.000000


          ...................................................
          :                      SETUP                      :
          :.................................................:
          :  # basis functions                  50          :
          :  # atomic orbitals                  49          :
          :  # shells                           27          :
          :  # electrons                        50          :
          :  max. iterations                   250          :
          :  Hamiltonian                  GFN2-xTB          :
          :  restarted?                      false          :
          :  GBSA solvation                  false          :
          :  PC potential                    false          :
          :  electronic temp.          300.0000000     K    :
          :  accuracy                    1.0000000          :
          :  -> integral cutoff          0.2500000E+02      :
          :  -> integral neglect         0.1000000E-07      :
          :  -> SCF convergence          0.1000000E-05 Eh   :
          :  -> wf. convergence          0.1000000E-03 e    :
          :  Broyden damping             0.4000000          :
          :  net charge                          0          :
          :  unpaired electrons                  0          :
          ...................................................

 iter      E             dE          RMSdq      gap      omega  full diag
   1    -28.0823491 -0.280823E+02  0.478E+00    2.66       0.0  T
   2    -28.1294836 -0.471345E-01  0.364E+00    2.79       1.0  T
   3    -28.1405340 -0.110504E-01  0.170E+00    2.57       1.0  T
   4    -28.1435247 -0.299070E-02  0.845E-01    2.65       1.0  T
   5    -28.1493927 -0.586805E-02  0.284E-01    2.58       1.0  T
   6    -28.1494215 -0.287183E-04  0.549E-02    2.58       1.0  T
   7    -28.1494272 -0.575452E-05  0.404E-02    2.58       1.0  T
   8    -28.1494368 -0.957897E-05  0.218E-02    2.58       1.1  T
   9    -28.1494377 -0.964340E-06  0.512E-03    2.58       4.7  T
  10    -28.1494379 -0.101127E-06  0.267E-03    2.58       9.1  T
  11    -28.1494379 -0.625744E-08  0.935E-04    2.58      25.9  T
  12    -28.1494379 -0.346486E-08  0.301E-04    2.58      80.5  T

   *** convergence criteria satisfied after 12 iterations ***

         #    Occupation            Energy/Eh            Energy/eV
      -------------------------------------------------------------
         1        2.0000           -0.7574001             -20.6099
       ...           ...                  ...                  ...
        19        2.0000           -0.4738223             -12.8934
        20        2.0000           -0.4664371             -12.6924
        21        2.0000           -0.4377567             -11.9120
        22        2.0000           -0.4208184             -11.4511
        23        2.0000           -0.3913279             -10.6486
        24        2.0000           -0.3811233             -10.3709
        25        2.0000           -0.3727653             -10.1435 (HOMO)
        26                         -0.2780040              -7.5649 (LUMO)
        27                         -0.2186714              -5.9504
        28                         -0.1968834              -5.3575
        29                         -0.1524033              -4.1471
        30                         -0.0969106              -2.6371
       ...                                ...                  ...
        49                          0.7694043              20.9366
      -------------------------------------------------------------
                  HL-Gap            0.0947614 Eh            2.5786 eV
             Fermi-level           -0.3253847 Eh           -8.8542 eV

 SCC (total)                   0 d,  0 h,  0 min,  1.064 sec
 SCC setup                      ...        0 min,  0.007 sec (  0.662%)
 Dispersion                     ...        0 min,  0.032 sec (  3.010%)
 classical contributions        ...        0 min,  0.017 sec (  1.564%)
 integral evaluation            ...        0 min,  0.038 sec (  3.534%)
 iterations                     ...        0 min,  0.938 sec ( 88.175%)
 molecular gradient             ...        0 min,  0.029 sec (  2.727%)
 printout                       ...        0 min,  0.003 sec (  0.325%)

         :::::::::::::::::::::::::::::::::::::::::::::::::::::
         ::                     SUMMARY                     ::
         :::::::::::::::::::::::::::::::::::::::::::::::::::::
         :: total energy             -24.289520088994 Eh    ::
         :: gradient norm              3.698983790640 Eh/a0 ::
         :: HOMO-LUMO gap              2.578588002500 eV    ::
         ::.................................................::
         :: SCC energy               -28.149393808235 Eh    ::
         :: -> isotropic ES            0.051871955008 Eh    ::
         :: -> anisotropic ES          0.000617100840 Eh    ::
         :: -> anisotropic XC          0.018755562293 Eh    ::
         :: -> dispersion             -0.014954223343 Eh    ::
         :: repulsion energy           0.282184316622 Eh    ::
         :: add. restraining           3.577689402618 Eh    ::
         :: total charge               0.000000000000 e     ::
         :::::::::::::::::::::::::::::::::::::::::::::::::::::

      ----------------------------------------------------------- 
     |                   =====================                   |
     |                        A N C O P T                        |
     |                   =====================                   |
     |               Approximate Normal Coordinate               |
     |                Rational Function Optimizer                |
      ----------------------------------------------------------- 
      ----------------------------------------------------------- 
     |                   =====================                   |
     |                        A N C O P T                        |
     |                   =====================                   |
     |               Approximate Normal Coordinate               |
     |                Rational Function Optimizer                |
      ----------------------------------------------------------- 

          ...................................................
          :                      SETUP                      :
          :.................................................:
          :   optimization level            normal          :
          :   max. optcycles                   200          :
          :   ANC micro-cycles                  20          :
          :   degrees of freedom                45          :
          :.................................................:
          :   RF solver                   davidson          :
          :   write xtbopt.log                true          :
          :   linear?                        false          :
          :   energy convergence         0.5000000E-05 Eh   :
          :   grad. convergence          0.1000000E-02 Eh/α :
          :   maxmium RF displ.          1.0000000          :
          :   Hlow (freq-cutoff)         0.1000000E-01      :
          :   Hmax (freq-cutoff)         5.0000000          :
          :   S6 in model hess.         20.0000000          :
          ...................................................

generating ANC from exact Hessian ...
Using Lindh-Hessian (1995)
 Shifting diagonal of input Hessian by   0.84790085217533029     
 Lowest  eigenvalues of input Hessian
    0.010000    0.000000    0.000000    0.000000    0.000000    0.000000
    0.000000    0.854104    0.854782    0.857337    0.859859    0.861515
    0.879463    0.892265    0.893266    0.896468    0.902257    0.905615
 Highest eigenvalues
    2.421010    2.618307    2.852786    2.945117    6.787351    7.972788


........................................................................
.............................. CYCLE    1 ..............................
........................................................................

 iter      E             dE          RMSdq      gap      omega  full diag
   1    -28.1494379 -0.281494E+02  0.907E-05    2.58       0.0  T
   2    -28.1494379 -0.106333E-10  0.584E-05    2.58     415.6  T
   3    -28.1494379 -0.199307E-11  0.430E-05    2.58     564.2  T
     SCC iter.                  ...        0 min,  0.189 sec
     gradient                   ...        0 min,  0.002 sec
 * total energy  :   -24.2895201 Eh     change       -0.2249223E-09 Eh
   gradient norm :     3.6989361 Eh/α   predicted     0.0000000E+00 (-100.00%)
   displ. norm   :     0.7299383 α      lambda       -0.2648737E+01
   maximum displ.:     0.4289376 α      in ANC's #30, #43, #39, ...

........................................................................
.............................. CYCLE    2 ..............................
........................................................................

 iter      E             dE          RMSdq      gap      omega  full diag
   1    -28.1109762 -0.281110E+02  0.171E+00    2.69       0.0  T
   2    -28.1177383 -0.676202E-02  0.125E+00    2.55       1.0  T
   3    -28.1187163 -0.978055E-03  0.614E-01    2.58       1.0  T
   4    -28.1187230 -0.666065E-05  0.299E-01    2.60       1.0  T
   5    -28.1194973 -0.774348E-03  0.116E-01    2.58       1.0  T
   6    -28.1195096 -0.122614E-04  0.337E-02    2.59       1.0  T
   7    -28.1195171 -0.757044E-05  0.141E-02    2.59       1.7  T
   8    -28.1195174 -0.259429E-06  0.761E-03    2.59       3.2  T
   9    -28.1195178 -0.365759E-06  0.158E-03    2.59      15.3  T
  10    -28.1195178 -0.695646E-08  0.101E-03    2.59      24.0  T
  11    -28.1195178 -0.150857E-08  0.228E-04    2.59     106.2  T
  12    -28.1195178 -0.115744E-09  0.126E-04    2.59     192.1  T
     SCC iter.                  ...        0 min,  0.830 sec
     gradient                   ...        0 min,  0.052 sec
 * total energy  :   -26.4911973 Eh     change       -0.2201677E+01 Eh
   gradient norm :     2.3348234 Eh/α   predicted    -0.2030005E+01 (  -7.80%)
   displ. norm   :     0.7267176 α      lambda       -0.1672522E+01
   maximum displ.:     0.4429429 α      in ANC's #30, #43, #38, ...

........................................................................
.............................. CYCLE    3 ..............................
........................................................................

 iter      E             dE          RMSdq      gap      omega  full diag
   1    -28.0006688 -0.280007E+02  0.160E+00    1.19       0.0  T
   2    -28.0064654 -0.579653E-02  0.793E-01    1.23       1.0  T
   3    -28.0065211 -0.557309E-04  0.498E-01    1.24       1.0  T
   4    -28.0069447 -0.423610E-03  0.270E-01    1.24       1.0  T
   5    -28.0075014 -0.556699E-03  0.113E-01    1.23       1.0  T
   6    -28.0075214 -0.200168E-04  0.711E-02    1.24       1.0  T
   7    -28.0075462 -0.248035E-04  0.222E-02    1.24       1.1  T
   8    -28.0075508 -0.461100E-05  0.808E-03    1.23       3.0  T
   9    -28.0075512 -0.344082E-06  0.415E-03    1.24       5.8  T
  10    -28.0075512 -0.265021E-07  0.209E-03    1.23      11.6  T
  11    -28.0075512 -0.305293E-07  0.837E-04    1.24      29.0  T
  12    -28.0075512 -0.876966E-09  0.524E-04    1.23      46.3  T
     SCC iter.                  ...        0 min,  0.786 sec
     gradient                   ...        0 min,  0.075 sec
 * total energy  :   -27.5354125 Eh     change       -0.1044215E+01 Eh
   gradient norm :     0.7817144 Eh/α   predicted    -0.1277906E+01 (  22.38%)
   displ. norm   :     0.4606690 α      lambda       -0.2326835E+00
   maximum displ.:     0.3534091 α      in ANC's #1, #30, #44, ...

........................................................................
.............................. CYCLE    4 ..............................
........................................................................

 iter      E             dE          RMSdq      gap      omega  full diag
   1    -27.9616697 -0.279617E+02  0.938E-01    1.10       0.0  T
   2    -27.9600152  0.165446E-02  0.125E+00    1.15       1.0  T
   3    -27.9676190 -0.760379E-02  0.471E-01    1.11       1.0  T
   4    -27.9674973  0.121766E-03  0.249E-01    1.11       1.0  T
   5    -27.9677855 -0.288261E-03  0.106E-01    1.10       1.0  T
   6    -27.9679130 -0.127456E-03  0.347E-02    1.11       1.0  T
   7    -27.9679222 -0.925622E-05  0.139E-02    1.11       1.7  T
   8    -27.9679241 -0.189149E-05  0.624E-03    1.11       3.9  T
   9    -27.9679243 -0.149156E-06  0.293E-03    1.11       8.3  T
  10    -27.9679243 -0.328469E-07  0.945E-04    1.11      25.7  T
  11    -27.9679243 -0.152150E-08  0.388E-04    1.11      62.5  T
     SCC iter.                  ...        0 min,  0.598 sec
     gradient                   ...        0 min,  0.062 sec
 * total energy  :   -27.6555157 Eh     change       -0.1201032E+00 Eh
   gradient norm :     0.2361852 Eh/α   predicted    -0.1410313E+00 (  17.43%)
   displ. norm   :     0.1787542 α      lambda       -0.2439848E-01
   maximum displ.:     0.1189234 α      in ANC's #1, #25, #26, ...

........................................................................
.............................. CYCLE    5 ..............................
........................................................................

 iter      E             dE          RMSdq      gap      omega  full diag
   1    -27.9580761 -0.279581E+02  0.945E-01    1.20       0.0  T
   2    -27.9532371  0.483900E-02  0.132E+00    1.15       1.0  T
   3    -27.9653067 -0.120696E-01  0.232E-01    1.16       1.0  T
   4    -27.9647408  0.565906E-03  0.253E-01    1.15       1.0  T
   5    -27.9653495 -0.608635E-03  0.893E-02    1.15       1.0  T
   6    -27.9654065 -0.570606E-04  0.177E-02    1.15       1.4  T
   7    -27.9654075 -0.949267E-06  0.133E-02    1.16       1.8  T
   8    -27.9654084 -0.909521E-06  0.296E-03    1.15       8.2  T
   9    -27.9654084 -0.293446E-07  0.175E-03    1.15      13.9  T
  10    -27.9654084 -0.131441E-07  0.104E-03    1.15      23.4  T
  11    -27.9654084 -0.762805E-08  0.283E-04    1.15      85.7  T
  12    -27.9654084 -0.301657E-09  0.145E-04    1.15     167.4  T
     SCC iter.                  ...        0 min,  0.797 sec
     gradient                   ...        0 min,  0.123 sec
 * total energy  :   -27.6683353 Eh     change       -0.1281967E-01 Eh
   gradient norm :     0.1925710 Eh/α   predicted    -0.1258905E-01 (  -1.80%)
   displ. norm   :     0.7848473 α      lambda       -0.7070673E-01
   maximum displ.:     0.6710932 α      in ANC's #1, #25, #43, ...

........................................................................
.............................. CYCLE    6 ..............................
........................................................................

 iter      E             dE          RMSdq      gap      omega  full diag
   1    -27.9673801 -0.279674E+02  0.127E+00    1.13       0.0  T
   2    -27.9665670  0.813016E-03  0.820E-01    1.19       1.0  T
   3    -27.9640956  0.247149E-02  0.819E-01    1.10       1.0  T
   4    -27.9699706 -0.587503E-02  0.301E-01    1.15       1.0  T
   5    -27.9708969 -0.926288E-03  0.112E-01    1.14       1.0  T
   6    -27.9709262 -0.292825E-04  0.686E-02    1.14       1.0  T
   7    -27.9709886 -0.624549E-04  0.208E-02    1.14       1.2  T
   8    -27.9709899 -0.127260E-05  0.115E-02    1.14       2.1  T
   9    -27.9709907 -0.804688E-06  0.494E-03    1.14       4.9  T
  10    -27.9709908 -0.135018E-06  0.164E-03    1.14      14.8  T
  11    -27.9709908 -0.203710E-07  0.627E-04    1.14      38.7  T
  12    -27.9709908 -0.153469E-08  0.286E-04    1.14      84.8  T
     SCC iter.                  ...        0 min,  0.899 sec
     gradient                   ...        0 min,  0.023 sec
 * total energy  :   -27.6871163 Eh     change       -0.1878096E-01 Eh
   gradient norm :     0.2948725 Eh/α   predicted    -0.5713049E-01 ( 204.19%)
   displ. norm   :     0.2577430 α      lambda       -0.3088263E-01
   maximum displ.:     0.2424314 α      in ANC's #1, #31, #9, ...

........................................................................
.............................. CYCLE    7 ..............................
........................................................................

 iter      E             dE          RMSdq      gap      omega  full diag
   1    -27.9831386 -0.279831E+02  0.663E-01    1.30       0.0  T
   2    -27.9816817  0.145688E-02  0.769E-01    1.24       1.0  T
   3    -27.9861491 -0.446742E-02  0.200E-01    1.28       1.0  T
   4    -27.9856257  0.523459E-03  0.214E-01    1.26       1.0  T
   5    -27.9862708 -0.645114E-03  0.520E-02    1.27       1.0  T
   6    -27.9862802 -0.944304E-05  0.206E-02    1.27       1.2  T
   7    -27.9862837 -0.342848E-05  0.849E-03    1.27       2.9  T
   8    -27.9862841 -0.436703E-06  0.351E-03    1.27       6.9  T
   9    -27.9862842 -0.492080E-07  0.187E-03    1.27      13.0  T
  10    -27.9862842 -0.225425E-07  0.701E-04    1.27      34.6  T
  11    -27.9862842 -0.192108E-08  0.291E-04    1.27      83.5  T
     SCC iter.                  ...        0 min,  0.976 sec
     gradient                   ...        0 min,  0.085 sec
 * total energy  :   -27.7041218 Eh     change       -0.1700555E-01 Eh
   gradient norm :     0.1462804 Eh/α   predicted    -0.1646709E-01 (  -3.17%)
   displ. norm   :     0.1508968 α      lambda       -0.1441515E-01
   maximum displ.:     0.0727466 α      in ANC's #9, #31, #26, ...

........................................................................
.............................. CYCLE    8 ..............................
........................................................................

 iter      E             dE          RMSdq      gap      omega  full diag
   1    -27.9964872 -0.279965E+02  0.331E-01    1.30       0.0  T
   2    -27.9963962  0.910140E-04  0.307E-01    1.28       1.0  T
   3    -27.9971717 -0.775560E-03  0.911E-02    1.29       1.0  T
   4    -27.9971417  0.300527E-04  0.639E-02    1.29       1.0  T
   5    -27.9971907 -0.489699E-04  0.242E-02    1.29       1.0  T
   6    -27.9971958 -0.514569E-05  0.110E-02    1.29       2.2  T
   7    -27.9971974 -0.158265E-05  0.250E-03    1.29       9.7  T
   8    -27.9971974 -0.216569E-07  0.132E-03    1.29      18.4  T
   9    -27.9971974 -0.735948E-08  0.638E-04    1.29      38.0  T
  10    -27.9971974 -0.111787E-08  0.174E-04    1.29     139.5  T
     SCC iter.                  ...        0 min,  0.389 sec
     gradient                   ...        0 min,  0.002 sec
 * total energy  :   -27.7154909 Eh     change       -0.1136905E-01 Eh
   gradient norm :     0.1030791 Eh/α   predicted    -0.7371692E-02 ( -35.16%)
   displ. norm   :     0.4158485 α      lambda       -0.2416646E-01
   maximum displ.:     0.2152483 α      in ANC's #9, #26, #10, ...

........................................................................
.............................. CYCLE    9 ..............................
........................................................................

 iter      E             dE          RMSdq      gap      omega  full diag
   1    -28.0194784 -0.280195E+02  0.669E-01    1.42       0.0  T
   2    -28.0189972  0.481193E-03  0.698E-01    1.34       1.0  T
   3    -28.0225468 -0.354964E-02  0.198E-01    1.38       1.0  T
   4    -28.0222942  0.252570E-03  0.152E-01    1.37       1.0  T
   5    -28.0225805 -0.286300E-03  0.424E-02    1.38       1.0  T
   6    -28.0225948 -0.142499E-04  0.196E-02    1.38       1.2  T
   7    -28.0225989 -0.409207E-05  0.756E-03    1.38       3.2  T
   8    -28.0225992 -0.291163E-06  0.355E-03    1.38       6.8  T
   9    -28.0225992 -0.399595E-07  0.145E-03    1.38      16.7  T
  10    -28.0225992 -0.433864E-08  0.485E-04    1.38      50.0  T
  11    -28.0225992 -0.352792E-09  0.198E-04    1.38     122.2  T
     SCC iter.                  ...        0 min,  0.342 sec
     gradient                   ...        0 min,  0.002 sec
 * total energy  :   -27.7330504 Eh     change       -0.1755950E-01 Eh
   gradient norm :     0.1314804 Eh/α   predicted    -0.1417279E-01 ( -19.29%)
   displ. norm   :     0.3995045 α      lambda       -0.1626159E-01
   maximum displ.:     0.2149186 α      in ANC's #9, #1, #10, ...

........................................................................
.............................. CYCLE   10 ..............................
........................................................................

 iter      E             dE          RMSdq      gap      omega  full diag
   1    -28.0400827 -0.280401E+02  0.416E-01    1.49       0.0  T
   2    -28.0399713  0.111444E-03  0.331E-01    1.45       1.0  T
   3    -28.0404847 -0.513435E-03  0.175E-01    1.48       1.0  T
   4    -28.0405816 -0.968417E-04  0.788E-02    1.46       1.0  T
   5    -28.0406400 -0.583963E-04  0.365E-02    1.47       1.0  T
   6    -28.0406523 -0.123678E-04  0.126E-02    1.47       1.9  T
   7    -28.0406535 -0.120139E-05  0.497E-03    1.47       4.9  T
   8    -28.0406537 -0.210857E-06  0.272E-03    1.47       8.9  T
   9    -28.0406538 -0.122019E-07  0.135E-03    1.47      18.0  T
  10    -28.0406538 -0.635963E-08  0.371E-04    1.47      65.4  T
  11    -28.0406538 -0.407123E-09  0.199E-04    1.47     121.9  T
     SCC iter.                  ...        0 min,  0.324 sec
     gradient                   ...        0 min,  0.002 sec
 * total energy  :   -27.7449799 Eh     change       -0.1192949E-01 Eh
   gradient norm :     0.1303771 Eh/α   predicted    -0.9428509E-02 ( -20.96%)
   displ. norm   :     0.3319154 α      lambda       -0.1339924E-01
   maximum displ.:     0.1911431 α      in ANC's #9, #10, #11, ...

........................................................................
.............................. CYCLE   11 ..............................
........................................................................

 iter      E             dE          RMSdq      gap      omega  full diag
   1    -28.0569432 -0.280569E+02  0.320E-01    1.56       0.0  T
   2    -28.0568858  0.573358E-04  0.243E-01    1.56       1.0  T
   3    -28.0573611 -0.475250E-03  0.130E-01    1.57       1.0  T
   4    -28.0573949 -0.338515E-04  0.878E-02    1.56       1.0  T
   5    -28.0574771 -0.821536E-04  0.219E-02    1.56       1.1  T
   6    -28.0574786 -0.147782E-05  0.782E-03    1.56       3.1  T
   7    -28.0574787 -0.151604E-06  0.304E-03    1.56       8.0  T
   8    -28.0574788 -0.382722E-07  0.160E-03    1.56      15.1  T
   9    -28.0574788 -0.651130E-08  0.871E-04    1.56      27.9  T
  10    -28.0574788 -0.346606E-08  0.298E-04    1.56      81.4  T
     SCC iter.                  ...        0 min,  0.561 sec
     gradient                   ...        0 min,  0.081 sec
 * total energy  :   -27.7549091 Eh     change       -0.9929178E-02 Eh
   gradient norm :     0.1030867 Eh/α   predicted    -0.7437691E-02 ( -25.09%)
   displ. norm   :     0.2759461 α      lambda       -0.1235588E-01
   maximum displ.:     0.1583999 α      in ANC's #9, #11, #10, ...

........................................................................
.............................. CYCLE   12 ..............................
........................................................................

 iter      E             dE          RMSdq      gap      omega  full diag
   1    -28.0735790 -0.280736E+02  0.405E-01    1.64       0.0  T
   2    -28.0737411 -0.162110E-03  0.313E-01    1.66       1.0  T
   3    -28.0745179 -0.776834E-03  0.131E-01    1.65       1.0  T
   4    -28.0744743  0.435818E-04  0.706E-02    1.65       1.0  T
   5    -28.0745507 -0.764103E-04  0.164E-02    1.65       1.5  T
   6    -28.0745526 -0.191699E-05  0.682E-03    1.65       3.6  T
   7    -28.0745528 -0.145929E-06  0.179E-03    1.65      13.5  T
   8    -28.0745528 -0.108616E-07  0.949E-04    1.65      25.6  T
   9    -28.0745528 -0.433667E-08  0.254E-04    1.65      95.5  T
     SCC iter.                  ...        0 min,  0.441 sec
     gradient                   ...        0 min,  0.005 sec
 * total energy  :   -27.7635465 Eh     change       -0.8637497E-02 Eh
   gradient norm :     0.0872438 Eh/α   predicted    -0.6648364E-02 ( -23.03%)
   displ. norm   :     0.2028855 α      lambda       -0.7168590E-02
   maximum displ.:     0.1024545 α      in ANC's #9, #11, #25, ...

........................................................................
.............................. CYCLE   13 ..............................
........................................................................

 iter      E             dE          RMSdq      gap      omega  full diag
   1    -28.0832411 -0.280832E+02  0.292E-01    1.68       0.0  T
   2    -28.0833167 -0.756316E-04  0.192E-01    1.69       1.0  T
   3    -28.0834599 -0.143111E-03  0.115E-01    1.68       1.0  T
   4    -28.0834832 -0.233710E-04  0.344E-02    1.69       1.0  T
   5    -28.0834992 -0.159731E-04  0.176E-02    1.69       1.4  T
   6    -28.0835029 -0.366889E-05  0.509E-03    1.69       4.8  T
   7    -28.0835030 -0.966339E-07  0.128E-03    1.69      18.9  T
   8    -28.0835030 -0.489698E-08  0.657E-04    1.69      36.9  T
   9    -28.0835030 -0.227469E-08  0.198E-04    1.69     122.5  T
     SCC iter.                  ...        0 min,  0.693 sec
     gradient                   ...        0 min,  0.020 sec
 * total energy  :   -27.7685886 Eh     change       -0.5042059E-02 Eh
   gradient norm :     0.0790107 Eh/α   predicted    -0.3731838E-02 ( -25.99%)
   displ. norm   :     0.1558172 α      lambda       -0.4396655E-02
   maximum displ.:     0.0699406 α      in ANC's #9, #11, #4, ...

........................................................................
.............................. CYCLE   14 ..............................
........................................................................

 iter      E             dE          RMSdq      gap      omega  full diag
   1    -28.0866414 -0.280866E+02  0.188E-01    1.70       0.0  T
   2    -28.0866462 -0.481421E-05  0.141E-01    1.69       1.0  T
   3    -28.0866567 -0.104527E-04  0.883E-02    1.70       1.0  T
   4    -28.0866794 -0.227198E-04  0.315E-02    1.69       1.0  T
   5    -28.0866960 -0.166331E-04  0.973E-03    1.69       2.5  T
   6    -28.0866975 -0.145844E-05  0.424E-03    1.69       5.7  T
   7    -28.0866975 -0.633421E-07  0.998E-04    1.69      24.3  T
   8    -28.0866975 -0.191286E-08  0.526E-04    1.69      46.1  T
     SCC iter.                  ...        0 min,  0.451 sec
     gradient                   ...        0 min,  0.003 sec
 * total energy  :   -27.7715886 Eh     change       -0.2999993E-02 Eh
   gradient norm :     0.0499446 Eh/α   predicted    -0.2251705E-02 ( -24.94%)
   displ. norm   :     0.0990994 α      lambda       -0.2283087E-02
   maximum displ.:     0.0444736 α      in ANC's #4, #11, #9, ...

........................................................................
.............................. CYCLE   15 ..............................
........................................................................

 iter      E             dE          RMSdq      gap      omega  full diag
   1    -28.0865069 -0.280865E+02  0.166E-01    1.69       0.0  T
   2    -28.0865303 -0.233185E-04  0.167E-01    1.67       1.0  T
   3    -28.0867015 -0.171225E-03  0.582E-02    1.68       1.0  T
   4    -28.0866887  0.127893E-04  0.280E-02    1.68       1.0  T
   5    -28.0867023 -0.135798E-04  0.692E-03    1.68       3.5  T
   6    -28.0867025 -0.254549E-06  0.294E-03    1.68       8.2  T
   7    -28.0867025 -0.241700E-07  0.742E-04    1.68      32.7  T
   8    -28.0867025 -0.772214E-09  0.398E-04    1.68      61.0  T
     SCC iter.                  ...        0 min,  0.468 sec
     gradient                   ...        0 min,  0.054 sec
 * total energy  :   -27.7732126 Eh     change       -0.1624013E-02 Eh
   gradient norm :     0.0322997 Eh/α   predicted    -0.1152756E-02 ( -29.02%)
   displ. norm   :     0.0968435 α      lambda       -0.1767135E-02
   maximum displ.:     0.0520215 α      in ANC's #4, #11, #2, ...

........................................................................
.............................. CYCLE   16 ..............................
........................................................................

 iter      E             dE          RMSdq      gap      omega  full diag
   1    -28.0857485 -0.280857E+02  0.204E-01    1.68       0.0  T
   2    -28.0857933 -0.447536E-04  0.223E-01    1.65       1.0  T
   3    -28.0861536 -0.360373E-03  0.596E-02    1.67       1.0  T
   4    -28.0861435  0.101681E-04  0.294E-02    1.66       1.0  T
   5    -28.0861561 -0.126562E-04  0.839E-03    1.67       2.9  T
   6    -28.0861568 -0.626609E-06  0.348E-03    1.67       7.0  T
   7    -28.0861568 -0.352912E-07  0.127E-03    1.67      19.1  T
   8    -28.0861568 -0.171142E-07  0.476E-04    1.67      50.9  T
   9    -28.0861568 -0.255490E-09  0.201E-04    1.67     120.5  T
     SCC iter.                  ...        0 min,  0.433 sec
     gradient                   ...        0 min,  0.099 sec
 * total energy  :   -27.7744948 Eh     change       -0.1282138E-02 Eh
   gradient norm :     0.0370356 Eh/α   predicted    -0.8918560E-03 ( -30.44%)
   displ. norm   :     0.1196070 α      lambda       -0.1672709E-02
   maximum displ.:     0.0696112 α      in ANC's #4, #2, #11, ...

........................................................................
.............................. CYCLE   17 ..............................
........................................................................

 iter      E             dE          RMSdq      gap      omega  full diag
   1    -28.0848377 -0.280848E+02  0.195E-01    1.67       0.0  T
   2    -28.0848807 -0.429872E-04  0.194E-01    1.64       1.0  T
   3    -28.0851658 -0.285143E-03  0.544E-02    1.65       1.0  T
   4    -28.0851632  0.264885E-05  0.180E-02    1.65       1.3  T
   5    -28.0851646 -0.142583E-05  0.124E-02    1.65       2.0  T
   6    -28.0851665 -0.191815E-05  0.397E-03    1.65       6.1  T
   7    -28.0851666 -0.111787E-06  0.166E-03    1.65      14.6  T
   8    -28.0851667 -0.187316E-07  0.538E-04    1.65      45.1  T
   9    -28.0851667 -0.345722E-09  0.225E-04    1.65     108.0  T
     SCC iter.                  ...        0 min,  0.507 sec
     gradient                   ...        0 min,  0.064 sec
 * total energy  :   -27.7757254 Eh     change       -0.1230615E-02 Eh
   gradient norm :     0.0433190 Eh/α   predicted    -0.8483223E-03 ( -31.07%)
   displ. norm   :     0.1513264 α      lambda       -0.1851660E-02
   maximum displ.:     0.0968576 α      in ANC's #4, #2, #11, ...

........................................................................
.............................. CYCLE   18 ..............................
........................................................................

 iter      E             dE          RMSdq      gap      omega  full diag
   1    -28.0843073 -0.280843E+02  0.168E-01    1.67       0.0  T
   2    -28.0843378 -0.305146E-04  0.164E-01    1.64       1.0  T
   3    -28.0845204 -0.182572E-03  0.548E-02    1.65       1.0  T
   4    -28.0845137  0.669208E-05  0.232E-02    1.65       1.0  T
   5    -28.0845199 -0.621859E-05  0.101E-02    1.65       2.4  T
   6    -28.0845212 -0.127292E-05  0.385E-03    1.65       6.3  T
   7    -28.0845213 -0.123113E-06  0.137E-03    1.65      17.7  T
   8    -28.0845214 -0.731634E-08  0.475E-04    1.65      51.0  T
   9    -28.0845214 -0.349011E-09  0.182E-04    1.65     133.5  T
     SCC iter.                  ...        0 min,  0.475 sec
     gradient                   ...        0 min,  0.079 sec
 * total energy  :   -27.7771116 Eh     change       -0.1386269E-02 Eh
   gradient norm :     0.0411540 Eh/α   predicted    -0.9470274E-03 ( -31.69%)
   displ. norm   :     0.2076038 α      lambda       -0.2319404E-02
   maximum displ.:     0.1380094 α      in ANC's #4, #2, #3, ...

........................................................................
.............................. CYCLE   19 ..............................
........................................................................

 iter      E             dE          RMSdq      gap      omega  full diag
   1    -28.0841126 -0.280841E+02  0.134E-01    1.66       0.0  T
   2    -28.0841203 -0.772953E-05  0.832E-02    1.65       1.0  T
   3    -28.0840966  0.237122E-04  0.657E-02    1.66       1.0  T
   4    -28.0841313 -0.346697E-04  0.212E-02    1.65       1.1  T
   5    -28.0841366 -0.536509E-05  0.801E-03    1.65       3.0  T
   6    -28.0841372 -0.627958E-06  0.304E-03    1.65       8.0  T
   7    -28.0841373 -0.510515E-07  0.133E-03    1.65      18.3  T
   8    -28.0841373 -0.154967E-07  0.561E-04    1.65      43.3  T
   9    -28.0841373 -0.196088E-09  0.220E-04    1.65     110.2  T
     SCC iter.                  ...        0 min,  0.547 sec
     gradient                   ...        0 min,  0.087 sec
 * total energy  :   -27.7788579 Eh     change       -0.1746310E-02 Eh
   gradient norm :     0.0457465 Eh/α   predicted    -0.1209680E-02 ( -30.73%)
   displ. norm   :     0.2617842 α      lambda       -0.2907565E-02
   maximum displ.:     0.1847855 α      in ANC's #4, #2, #3, ...

........................................................................
.............................. CYCLE   20 ..............................
........................................................................

 iter      E             dE          RMSdq      gap      omega  full diag
   1    -28.0853574 -0.280854E+02  0.150E-01    1.67       0.0  T
   2    -28.0853506  0.674128E-05  0.110E-01    1.68       1.0  T
   3    -28.0853978 -0.471811E-04  0.688E-02    1.68       1.0  T
   4    -28.0854123 -0.145367E-04  0.432E-02    1.67       1.0  T
   5    -28.0854333 -0.209551E-04  0.723E-03    1.68       3.4  T
   6    -28.0854335 -0.168938E-06  0.281E-03    1.68       8.6  T
   7    -28.0854335 -0.326117E-07  0.110E-03    1.68      22.0  T
   8    -28.0854335 -0.578871E-08  0.597E-04    1.68      40.6  T
   9    -28.0854335 -0.793477E-09  0.182E-04    1.68     133.5  T
     SCC iter.                  ...        0 min,  0.529 sec
     gradient                   ...        0 min,  0.003 sec
 * total energy  :   -27.7810473 Eh     change       -0.2189318E-02 Eh
   gradient norm :     0.0515457 Eh/α   predicted    -0.1553403E-02 ( -29.05%)
   displ. norm   :     0.3299754 α      lambda       -0.3504046E-02
   maximum displ.:     0.2346085 α      in ANC's #4, #2, #3, ...
 * RMSD in coord.:     0.8322311 α      energy gain  -0.3491527E+01 Eh

generating ANC from exact Hessian ...
Using Lindh-Hessian (1995)
 Shifting diagonal of input Hessian by    8.2859621359497697E-003
 Lowest  eigenvalues of input Hessian
    0.000000    0.000000    0.000000    0.000000    0.000000    0.000000
    0.010000    0.012726    0.013336    0.013986    0.018447    0.018726
    0.020587    0.033499    0.044522    0.054886    0.057094    0.059695
 Highest eigenvalues
    1.824358    2.010609    2.238960    3.425692    4.097214    6.876146


........................................................................
.............................. CYCLE   21 ..............................
........................................................................

 iter      E             dE          RMSdq      gap      omega  full diag
   1    -28.0876413 -0.280876E+02  0.205E-01    1.67       0.0  T
   2    -28.0876840 -0.427826E-04  0.191E-01    1.70       1.0  T
   3    -28.0879679 -0.283858E-03  0.776E-02    1.69       1.0  T
   4    -28.0879194  0.485243E-04  0.624E-02    1.68       1.0  T
   5    -28.0879728 -0.534200E-04  0.119E-02    1.69       2.0  T
   6    -28.0879731 -0.286708E-06  0.469E-03    1.69       5.2  T
   7    -28.0879732 -0.812841E-07  0.174E-03    1.69      14.0  T
   8    -28.0879732 -0.611168E-08  0.895E-04    1.69      27.1  T
   9    -28.0879732 -0.340745E-08  0.205E-04    1.69     118.3  T
     SCC iter.                  ...        0 min,  0.462 sec
     gradient                   ...        0 min,  0.081 sec
 * total energy  :   -27.7837543 Eh     change       -0.2707024E-02 Eh
   gradient norm :     0.0603048 Eh/α   predicted     0.0000000E+00 (-100.00%)
   displ. norm   :     0.5676047 α      lambda       -0.1306716E-01
   maximum displ.:     0.4667292 α      in ANC's #1, #5, #12, ...

........................................................................
.............................. CYCLE   22 ..............................
........................................................................

 iter      E             dE          RMSdq      gap      omega  full diag
   1    -28.1007997 -0.281008E+02  0.372E-01    1.73       0.0  T
   2    -28.1008382 -0.384790E-04  0.218E-01    1.73       1.0  T
   3    -28.1006825  0.155748E-03  0.145E-01    1.72       1.0  T
   4    -28.1008591 -0.176590E-03  0.270E-02    1.73       1.0  T
   5    -28.1008589  0.206238E-06  0.232E-02    1.73       1.0  T
   6    -28.1008651 -0.623395E-05  0.762E-03    1.73       3.2  T
   7    -28.1008654 -0.273636E-06  0.191E-03    1.73      12.7  T
   8    -28.1008654 -0.144221E-07  0.113E-03    1.73      21.5  T
   9    -28.1008654 -0.687550E-08  0.469E-04    1.73      51.7  T
  10    -28.1008654 -0.657497E-09  0.152E-04    1.73     159.9  T
     SCC iter.                  ...        0 min,  0.658 sec
     gradient                   ...        0 min,  0.094 sec
 * total energy  :   -27.7935726 Eh     change       -0.9818353E-02 Eh
   gradient norm :     0.0189036 Eh/α   predicted    -0.8638516E-02 ( -12.02%)
   displ. norm   :     0.6810363 α      lambda       -0.8248569E-02
   maximum displ.:     0.5947773 α      in ANC's #1, #5, #3, ...

........................................................................
.............................. CYCLE   23 ..............................
........................................................................

 iter      E             dE          RMSdq      gap      omega  full diag
   1    -28.1059251 -0.281059E+02  0.301E-01    1.76       0.0  T
   2    -28.1059607 -0.356259E-04  0.171E-01    1.74       1.0  T
   3    -28.1059328  0.278917E-04  0.137E-01    1.76       1.0  T
   4    -28.1060202 -0.874018E-04  0.477E-02    1.75       1.0  T
   5    -28.1060491 -0.288925E-04  0.155E-02    1.75       1.6  T
   6    -28.1060501 -0.104874E-05  0.798E-03    1.75       3.0  T
   7    -28.1060508 -0.662545E-06  0.211E-03    1.75      11.5  T
   8    -28.1060508 -0.667821E-08  0.139E-03    1.75      17.5  T
   9    -28.1060508 -0.655796E-08  0.311E-04    1.75      77.9  T
  10    -28.1060508 -0.396398E-09  0.151E-04    1.75     160.8  T
     SCC iter.                  ...        0 min,  0.566 sec
     gradient                   ...        0 min,  0.038 sec
 * total energy  :   -27.8007402 Eh     change       -0.7167532E-02 Eh
   gradient norm :     0.0226290 Eh/α   predicted    -0.6037164E-02 ( -15.77%)
   displ. norm   :     0.7252542 α      lambda       -0.7519199E-02
   maximum displ.:     0.6093343 α      in ANC's #1, #5, #4, ...

........................................................................
.............................. CYCLE   24 ..............................
........................................................................

 iter      E             dE          RMSdq      gap      omega  full diag
   1    -28.1093425 -0.281093E+02  0.335E-01    1.77       0.0  T
   2    -28.1093680 -0.254926E-04  0.208E-01    1.74       1.0  T
   3    -28.1095105 -0.142554E-03  0.141E-01    1.76       1.0  T
   4    -28.1095709 -0.603355E-04  0.596E-02    1.75       1.0  T
   5    -28.1096211 -0.502487E-04  0.194E-02    1.75       1.3  T
   6    -28.1096228 -0.163153E-05  0.891E-03    1.75       2.7  T
   7    -28.1096234 -0.658874E-06  0.254E-03    1.75       9.5  T
   8    -28.1096234 -0.117366E-07  0.161E-03    1.75      15.1  T
   9    -28.1096234 -0.907683E-08  0.398E-04    1.75      60.9  T
  10    -28.1096234 -0.558316E-09  0.154E-04    1.75     157.1  T
     SCC iter.                  ...        0 min,  0.483 sec
     gradient                   ...        0 min,  0.032 sec
 * total energy  :   -27.8075765 Eh     change       -0.6836286E-02 Eh
   gradient norm :     0.0266488 Eh/α   predicted    -0.5737263E-02 ( -16.08%)
   displ. norm   :     0.7875175 α      lambda       -0.7854083E-02
   maximum displ.:     0.6647316 α      in ANC's #1, #5, #4, ...

........................................................................
.............................. CYCLE   25 ..............................
........................................................................

 iter      E             dE          RMSdq      gap      omega  full diag
   1    -28.1149090 -0.281149E+02  0.368E-01    1.78       0.0  T
   2    -28.1149360 -0.270047E-04  0.230E-01    1.74       1.0  T
   3    -28.1151285 -0.192464E-03  0.151E-01    1.77       1.0  T
   4    -28.1152041 -0.755626E-04  0.645E-02    1.76       1.0  T
   5    -28.1152634 -0.593177E-04  0.224E-02    1.76       1.1  T
   6    -28.1152656 -0.219375E-05  0.941E-03    1.76       2.6  T
   7    -28.1152663 -0.708992E-06  0.276E-03    1.76       8.8  T
   8    -28.1152663 -0.144255E-07  0.174E-03    1.76      13.9  T
   9    -28.1152663 -0.112170E-07  0.448E-04    1.76      54.1  T
  10    -28.1152663 -0.625690E-09  0.154E-04    1.76     157.9  T
     SCC iter.                  ...        0 min,  0.558 sec
     gradient                   ...        0 min,  0.075 sec
 * total energy  :   -27.8145851 Eh     change       -0.7008615E-02 Eh
   gradient norm :     0.0252403 Eh/α   predicted    -0.6362470E-02 (  -9.22%)
   displ. norm   :     0.8121456 α      lambda       -0.7141097E-02
   maximum displ.:     0.6753938 α      in ANC's #1, #5, #12, ...

........................................................................
.............................. CYCLE   26 ..............................
........................................................................

 iter      E             dE          RMSdq      gap      omega  full diag
   1    -28.1215077 -0.281215E+02  0.354E-01    1.80       0.0  T
   2    -28.1215568 -0.490629E-04  0.205E-01    1.76       1.0  T
   3    -28.1216423 -0.854954E-04  0.145E-01    1.78       1.0  T
   4    -28.1217226 -0.802976E-04  0.572E-02    1.77       1.0  T
   5    -28.1217667 -0.441090E-04  0.212E-02    1.77       1.1  T
   6    -28.1217688 -0.208239E-05  0.812E-03    1.77       3.0  T
   7    -28.1217694 -0.619163E-06  0.234E-03    1.77      10.4  T
   8    -28.1217694 -0.828680E-08  0.149E-03    1.77      16.3  T
   9    -28.1217694 -0.970360E-08  0.451E-04    1.77      53.8  T
  10    -28.1217694 -0.453682E-09  0.144E-04    1.77     168.3  T
     SCC iter.                  ...        0 min,  0.785 sec
     gradient                   ...        0 min,  0.097 sec
 * total energy  :   -27.8207929 Eh     change       -0.6207829E-02 Eh
   gradient norm :     0.0231404 Eh/α   predicted    -0.5925567E-02 (  -4.55%)
   displ. norm   :     0.7779112 α      lambda       -0.5708791E-02
   maximum displ.:     0.6347017 α      in ANC's #1, #5, #12, ...

........................................................................
.............................. CYCLE   27 ..............................
........................................................................

 iter      E             dE          RMSdq      gap      omega  full diag
   1    -28.1304375 -0.281304E+02  0.312E-01    1.81       0.0  T
   2    -28.1304745 -0.369985E-04  0.166E-01    1.78       1.0  T
   3    -28.1304124  0.620819E-04  0.129E-01    1.80       1.0  T
   4    -28.1305200 -0.107577E-03  0.421E-02    1.79       1.0  T
   5    -28.1305381 -0.181562E-04  0.186E-02    1.79       1.3  T
   6    -28.1305403 -0.223062E-05  0.687E-03    1.79       3.5  T
   7    -28.1305409 -0.526970E-06  0.214E-03    1.79      11.3  T
   8    -28.1305409 -0.375036E-08  0.136E-03    1.79      17.8  T
   9    -28.1305409 -0.818684E-08  0.459E-04    1.79      52.9  T
  10    -28.1305409 -0.641787E-09  0.115E-04    1.79     210.4  T
     SCC iter.                  ...        0 min,  0.652 sec
     gradient                   ...        0 min,  0.055 sec
 * total energy  :   -27.8256340 Eh     change       -0.4841063E-02 Eh
   gradient norm :     0.0173687 Eh/α   predicted    -0.4581730E-02 (  -5.36%)
   displ. norm   :     0.7806986 α      lambda       -0.4407513E-02
   maximum displ.:     0.6133268 α      in ANC's #1, #5, #12, ...

........................................................................
.............................. CYCLE   28 ..............................
........................................................................

 iter      E             dE          RMSdq      gap      omega  full diag
   1    -28.1307701 -0.281308E+02  0.342E-01    1.82       0.0  T
   2    -28.1308186 -0.484578E-04  0.173E-01    1.79       1.0  T
   3    -28.1308296 -0.110466E-04  0.130E-01    1.81       1.0  T
   4    -28.1308979 -0.682787E-04  0.407E-02    1.80       1.0  T
   5    -28.1309147 -0.167765E-04  0.205E-02    1.80       1.2  T
   6    -28.1309179 -0.320196E-05  0.440E-03    1.80       5.5  T
   7    -28.1309180 -0.137661E-06  0.180E-03    1.80      13.5  T
   8    -28.1309180 -0.172403E-08  0.966E-04    1.80      25.1  T
   9    -28.1309180 -0.315598E-08  0.413E-04    1.80      58.7  T
     SCC iter.                  ...        0 min,  0.504 sec
     gradient                   ...        0 min,  0.098 sec
 * total energy  :   -27.8289891 Eh     change       -0.3355163E-02 Eh
   gradient norm :     0.0359912 Eh/α   predicted    -0.3546931E-02 (   5.72%)
   displ. norm   :     0.6857972 α      lambda       -0.3961436E-02
   maximum displ.:     0.5235304 α      in ANC's #1, #12, #6, ...

........................................................................
.............................. CYCLE   29 ..............................
........................................................................

 iter      E             dE          RMSdq      gap      omega  full diag
   1    -28.1414499 -0.281414E+02  0.319E-01    1.80       0.0  T
   2    -28.1414756 -0.257369E-04  0.168E-01    1.79       1.0  T
   3    -28.1413726  0.103010E-03  0.112E-01    1.80       1.0  T
   4    -28.1414913 -0.118709E-03  0.373E-02    1.79       1.0  T
   5    -28.1415029 -0.115912E-04  0.163E-02    1.79       1.5  T
   6    -28.1415048 -0.193268E-05  0.598E-03    1.79       4.1  T
   7    -28.1415052 -0.349436E-06  0.220E-03    1.79      11.0  T
   8    -28.1415052  0.289162E-09  0.144E-03    1.79      16.8  T
   9    -28.1415052 -0.814335E-08  0.395E-04    1.79      61.4  T
  10    -28.1415052 -0.581647E-09  0.124E-04    1.79     195.5  T
     SCC iter.                  ...        0 min,  0.503 sec
     gradient                   ...        0 min,  0.067 sec
 * total energy  :   -27.8314890 Eh     change       -0.2499829E-02 Eh
   gradient norm :     0.0207412 Eh/α   predicted    -0.2912300E-02 (  16.50%)
   displ. norm   :     0.6423179 α      lambda       -0.2271206E-02
   maximum displ.:     0.4944903 α      in ANC's #1, #5, #12, ...

........................................................................
.............................. CYCLE   30 ..............................
........................................................................

 iter      E             dE          RMSdq      gap      omega  full diag
   1    -28.1387567 -0.281388E+02  0.232E-01    1.80       0.0  T
   2    -28.1387683 -0.116497E-04  0.120E-01    1.80       1.0  T
   3    -28.1387442  0.241255E-04  0.450E-02    1.79       1.0  T
   4    -28.1387687 -0.245383E-04  0.235E-02    1.79       1.0  T
   5    -28.1387741 -0.535941E-05  0.122E-02    1.79       2.0  T
   6    -28.1387753 -0.117019E-05  0.247E-03    1.79       9.8  T
   7    -28.1387753 -0.170750E-07  0.158E-03    1.79      15.3  T
   8    -28.1387753 -0.295588E-08  0.680E-04    1.79      35.7  T
   9    -28.1387753 -0.226397E-08  0.288E-04    1.79      84.1  T
     SCC iter.                  ...        0 min,  0.527 sec
     gradient                   ...        0 min,  0.088 sec
 * total energy  :   -27.8328232 Eh     change       -0.1334207E-02 Eh
   gradient norm :     0.0192860 Eh/α   predicted    -0.1604120E-02 (  20.23%)
   displ. norm   :     0.3707638 α      lambda       -0.1043675E-02
   maximum displ.:     0.2338652 α      in ANC's #1, #12, #5, ...

........................................................................
.............................. CYCLE   31 ..............................
........................................................................

 iter      E             dE          RMSdq      gap      omega  full diag
   1    -28.1396355 -0.281396E+02  0.285E-01    1.80       0.0  T
   2    -28.1397123 -0.767553E-04  0.155E-01    1.78       1.0  T
   3    -28.1398177 -0.105464E-03  0.871E-02    1.79       1.0  T
   4    -28.1398336 -0.158547E-04  0.352E-02    1.78       1.0  T
   5    -28.1398506 -0.169684E-04  0.146E-02    1.78       1.7  T
   6    -28.1398514 -0.823332E-06  0.293E-03    1.78       8.3  T
   7    -28.1398514 -0.496499E-07  0.112E-03    1.78      21.6  T
   8    -28.1398515 -0.582833E-08  0.637E-04    1.78      38.1  T
   9    -28.1398515 -0.385242E-09  0.252E-04    1.78      96.2  T
     SCC iter.                  ...        0 min,  0.711 sec
     gradient                   ...        0 min,  0.003 sec
 * total energy  :   -27.8333052 Eh     change       -0.4820060E-03 Eh
   gradient norm :     0.0322408 Eh/α   predicted    -0.5935758E-03 (  23.15%)
   displ. norm   :     0.2297977 α      lambda       -0.7709161E-03
   maximum displ.:     0.1631651 α      in ANC's #1, #12, #27, ...

........................................................................
.............................. CYCLE   32 ..............................
........................................................................

 iter      E             dE          RMSdq      gap      omega  full diag
   1    -28.1454711 -0.281455E+02  0.127E-01    1.78       0.0  T
   2    -28.1455072 -0.360250E-04  0.118E-01    1.79       1.0  T
   3    -28.1455568 -0.496376E-04  0.552E-02    1.79       1.0  T
   4    -28.1455526  0.416397E-05  0.170E-02    1.78       1.4  T
   5    -28.1455562 -0.359198E-05  0.939E-03    1.78       2.6  T
   6    -28.1455574 -0.120825E-05  0.288E-03    1.78       8.4  T
   7    -28.1455575 -0.159223E-07  0.778E-04    1.78      31.2  T
   8    -28.1455575 -0.219138E-08  0.462E-04    1.78      52.5  T
     SCC iter.                  ...        0 min,  0.468 sec
     gradient                   ...        0 min,  0.117 sec
 * total energy  :   -27.8336264 Eh     change       -0.3212119E-03 Eh
   gradient norm :     0.0105614 Eh/α   predicted    -0.4058131E-03 (  26.34%)
   displ. norm   :     0.1993278 α      lambda       -0.4851508E-03
   maximum displ.:     0.1465082 α      in ANC's #1, #2, #12, ...

........................................................................
.............................. CYCLE   33 ..............................
........................................................................

 iter      E             dE          RMSdq      gap      omega  full diag
   1    -28.1446017 -0.281446E+02  0.107E-01    1.77       0.0  T
   2    -28.1446121 -0.103692E-04  0.866E-02    1.78       1.0  T
   3    -28.1446428 -0.306728E-04  0.431E-02    1.77       1.0  T
   4    -28.1446417  0.103250E-05  0.197E-02    1.77       1.2  T
   5    -28.1446474 -0.566091E-05  0.745E-03    1.77       3.3  T
   6    -28.1446480 -0.599558E-06  0.249E-03    1.77       9.8  T
   7    -28.1446480 -0.127114E-07  0.728E-04    1.77      33.3  T
   8    -28.1446480 -0.254812E-08  0.386E-04    1.77      62.8  T
     SCC iter.                  ...        0 min,  0.460 sec
     gradient                   ...        0 min,  0.092 sec
 * total energy  :   -27.8334944 Eh     change        0.1319627E-03 Eh
   gradient norm :     0.0226621 Eh/α   predicted    -0.2522142E-03 (-291.13%)
   displ. norm   :     0.0730990 α      lambda       -0.6319582E-03
   maximum displ.:     0.0427635 α      in ANC's #2, #8, #6, ...

........................................................................
.............................. CYCLE   34 ..............................
........................................................................

 iter      E             dE          RMSdq      gap      omega  full diag
   1    -28.1424109 -0.281424E+02  0.148E-01    1.78       0.0  T
   2    -28.1424525 -0.415595E-04  0.117E-01    1.77       1.0  T
   3    -28.1425419 -0.894229E-04  0.391E-02    1.77       1.0  T
   4    -28.1425327  0.915497E-05  0.265E-02    1.77       1.0  T
   5    -28.1425443 -0.115281E-04  0.836E-03    1.77       2.9  T
   6    -28.1425447 -0.426797E-06  0.225E-03    1.77      10.8  T
   7    -28.1425447 -0.443872E-08  0.700E-04    1.77      34.7  T
   8    -28.1425447 -0.355760E-08  0.310E-04    1.77      78.2  T
     SCC iter.                  ...        0 min,  0.406 sec
     gradient                   ...        0 min,  0.002 sec
 * total energy  :   -27.8337735 Eh     change       -0.2791204E-03 Eh
   gradient norm :     0.0112144 Eh/α   predicted    -0.3176667E-03 (  13.81%)
   displ. norm   :     0.1174849 α      lambda       -0.2226295E-03
   maximum displ.:     0.0895154 α      in ANC's #1, #6, #4, ...

........................................................................
.............................. CYCLE   35 ..............................
........................................................................

 iter      E             dE          RMSdq      gap      omega  full diag
   1    -28.1448953 -0.281449E+02  0.116E-01    1.77       0.0  T
   2    -28.1449212 -0.259085E-04  0.841E-02    1.78       1.0  T
   3    -28.1449656 -0.443646E-04  0.323E-02    1.78       1.0  T
   4    -28.1449610  0.458220E-05  0.188E-02    1.78       1.3  T
   5    -28.1449672 -0.621741E-05  0.556E-03    1.78       4.4  T
   6    -28.1449674 -0.230371E-06  0.154E-03    1.78      15.8  T
   7    -28.1449674 -0.327700E-08  0.730E-04    1.78      33.2  T
   8    -28.1449674 -0.308989E-08  0.373E-04    1.78      65.0  T
     SCC iter.                  ...        0 min,  0.321 sec
     gradient                   ...        0 min,  0.004 sec
 * total energy  :   -27.8337730 Eh     change        0.4960972E-06 Eh
   gradient norm :     0.0089428 Eh/α   predicted    -0.1128522E-03 (*******%)
   displ. norm   :     0.0572894 α      lambda       -0.1707038E-03
   maximum displ.:     0.0396861 α      in ANC's #1, #5, #10, ...

........................................................................
.............................. CYCLE   36 ..............................
........................................................................

 iter      E             dE          RMSdq      gap      omega  full diag
   1    -28.1448262 -0.281448E+02  0.602E-02    1.78       0.0  T
   2    -28.1448319 -0.564185E-05  0.364E-02    1.77       1.0  T
   3    -28.1448380 -0.610522E-05  0.180E-02    1.78       1.3  T
   4    -28.1448382 -0.183070E-06  0.771E-03    1.78       3.1  T
   5    -28.1448388 -0.625969E-06  0.408E-03    1.78       5.9  T
   6    -28.1448390 -0.183117E-06  0.103E-03    1.78      23.6  T
   7    -28.1448390 -0.184044E-08  0.349E-04    1.78      69.5  T
   8    -28.1448390 -0.922153E-09  0.144E-04    1.78     167.9  T
     SCC iter.                  ...        0 min,  0.436 sec
     gradient                   ...        0 min,  0.090 sec
 * total energy  :   -27.8338684 Eh     change       -0.9537612E-04 Eh
   gradient norm :     0.0054971 Eh/α   predicted    -0.8563093E-04 ( -10.22%)
   displ. norm   :     0.1150411 α      lambda       -0.9529148E-04
   maximum displ.:     0.0970301 α      in ANC's #1, #3, #6, ...

........................................................................
.............................. CYCLE   37 ..............................
........................................................................

 iter      E             dE          RMSdq      gap      omega  full diag
   1    -28.1407486 -0.281407E+02  0.607E-02    1.77       0.0  T
   2    -28.1407519 -0.326889E-05  0.306E-02    1.77       1.0  T
   3    -28.1407526 -0.686663E-06  0.223E-02    1.77       1.1  T
   4    -28.1407542 -0.168858E-05  0.519E-03    1.77       4.7  T
   5    -28.1407543 -0.662608E-07  0.276E-03    1.77       8.8  T
   6    -28.1407544 -0.852493E-07  0.143E-03    1.77      16.9  T
   7    -28.1407544 -0.237636E-07  0.551E-04    1.77      44.1  T
   8    -28.1407544 -0.132889E-08  0.284E-04    1.77      85.5  T
     SCC iter.                  ...        0 min,  0.442 sec
     gradient                   ...        0 min,  0.060 sec
 * total energy  :   -27.8338657 Eh     change        0.2705327E-05 Eh
   gradient norm :     0.0129536 Eh/α   predicted    -0.4827755E-04 (*******%)
   displ. norm   :     0.0569628 α      lambda       -0.1135660E-03
   maximum displ.:     0.0295904 α      in ANC's #5, #4, #1, ...

........................................................................
.............................. CYCLE   38 ..............................
........................................................................

 iter      E             dE          RMSdq      gap      omega  full diag
   1    -28.1432986 -0.281433E+02  0.370E-02    1.77       0.0  T
   2    -28.1432994 -0.775914E-06  0.216E-02    1.77       1.1  T
   3    -28.1432992  0.206928E-06  0.155E-02    1.77       1.6  T
   4    -28.1433008 -0.154579E-05  0.512E-03    1.77       4.7  T
   5    -28.1433011 -0.312911E-06  0.218E-03    1.77      11.1  T
   6    -28.1433011 -0.343829E-07  0.896E-04    1.77      27.1  T
   7    -28.1433011 -0.258181E-08  0.348E-04    1.77      69.7  T
     SCC iter.                  ...        0 min,  0.346 sec
     gradient                   ...        0 min,  0.009 sec
 * total energy  :   -27.8339312 Eh     change       -0.6550969E-04 Eh
   gradient norm :     0.0044965 Eh/α   predicted    -0.5696766E-04 ( -13.04%)
   displ. norm   :     0.0674548 α      lambda       -0.7587525E-04
   maximum displ.:     0.0501845 α      in ANC's #5, #4, #8, ...

........................................................................
.............................. CYCLE   39 ..............................
........................................................................

 iter      E             dE          RMSdq      gap      omega  full diag
   1    -28.1441668 -0.281442E+02  0.310E-02    1.77       0.0  T
   2    -28.1441670 -0.234542E-06  0.175E-02    1.77       1.4  T
   3    -28.1441665  0.512590E-06  0.797E-03    1.77       3.0  T
   4    -28.1441671 -0.617164E-06  0.235E-03    1.77      10.3  T
   5    -28.1441671  0.182866E-07  0.180E-03    1.77      13.5  T
   6    -28.1441672 -0.502192E-07  0.524E-04    1.77      46.3  T
   7    -28.1441672 -0.102848E-08  0.229E-04    1.77     106.0  T
     SCC iter.                  ...        0 min,  0.394 sec
     gradient                   ...        0 min,  0.074 sec
 * total energy  :   -27.8339576 Eh     change       -0.2639529E-04 Eh
   gradient norm :     0.0058285 Eh/α   predicted    -0.3810899E-04 (  44.38%)
   displ. norm   :     0.0691054 α      lambda       -0.5599578E-04
   maximum displ.:     0.0387578 α      in ANC's #5, #4, #3, ...

........................................................................
.............................. CYCLE   40 ..............................
........................................................................

 iter      E             dE          RMSdq      gap      omega  full diag
   1    -28.1439336 -0.281439E+02  0.289E-02    1.77       0.0  T
   2    -28.1439338 -0.265663E-06  0.145E-02    1.77       1.7  T
   3    -28.1439331  0.726334E-06  0.862E-03    1.77       2.8  T
   4    -28.1439340 -0.856054E-06  0.309E-03    1.77       7.8  T
   5    -28.1439340 -0.717094E-07  0.188E-03    1.77      12.9  T
   6    -28.1439341 -0.258020E-07  0.392E-04    1.77      61.8  T
   7    -28.1439341 -0.652676E-09  0.185E-04    1.77     131.2  T
     SCC iter.                  ...        0 min,  0.307 sec
     gradient                   ...        0 min,  0.002 sec
 * total energy  :   -27.8339981 Eh     change       -0.4052109E-04 Eh
   gradient norm :     0.0038811 Eh/α   predicted    -0.2813235E-04 ( -30.57%)
   displ. norm   :     0.1250802 α      lambda       -0.6361549E-04
   maximum displ.:     0.0592804 α      in ANC's #1, #5, #3, ...

........................................................................
.............................. CYCLE   41 ..............................
........................................................................

 iter      E             dE          RMSdq      gap      omega  full diag
   1    -28.1431301 -0.281431E+02  0.526E-02    1.77       0.0  T
   2    -28.1431313 -0.124111E-05  0.253E-02    1.77       1.0  T
   3    -28.1431307  0.580428E-06  0.162E-02    1.77       1.5  T
   4    -28.1431321 -0.141892E-05  0.414E-03    1.77       5.9  T
   5    -28.1431321  0.190670E-07  0.227E-03    1.77      10.7  T
   6    -28.1431322 -0.519167E-07  0.742E-04    1.77      32.7  T
   7    -28.1431322 -0.712801E-08  0.433E-04    1.77      56.0  T
     SCC iter.                  ...        0 min,  0.288 sec
     gradient                   ...        0 min,  0.004 sec
 * total energy  :   -27.8340353 Eh     change       -0.3715359E-04 Eh
   gradient norm :     0.0034481 Eh/α   predicted    -0.3230448E-04 ( -13.05%)
   displ. norm   :     0.0811979 α      lambda       -0.3553621E-04
   maximum displ.:     0.0440673 α      in ANC's #5, #3, #4, ...

........................................................................
.............................. CYCLE   42 ..............................
........................................................................

 iter      E             dE          RMSdq      gap      omega  full diag
   1    -28.1429133 -0.281429E+02  0.378E-02    1.77       0.0  T
   2    -28.1429141 -0.859968E-06  0.203E-02    1.76       1.2  T
   3    -28.1429144 -0.222806E-06  0.147E-02    1.77       1.7  T
   4    -28.1429150 -0.678945E-06  0.366E-03    1.76       6.6  T
   5    -28.1429152 -0.127357E-06  0.193E-03    1.76      12.6  T
   6    -28.1429152 -0.446029E-07  0.546E-04    1.76      44.4  T
   7    -28.1429152 -0.202175E-08  0.207E-04    1.76     117.4  T
     SCC iter.                  ...        0 min,  0.402 sec
     gradient                   ...        0 min,  0.002 sec
 * total energy  :   -27.8340591 Eh     change       -0.2378388E-04 Eh
   gradient norm :     0.0037530 Eh/α   predicted    -0.1788542E-04 ( -24.80%)
   displ. norm   :     0.0717934 α      lambda       -0.4029719E-04
   maximum displ.:     0.0367290 α      in ANC's #5, #3, #6, ...
 * RMSD in coord.:     1.5612675 α      energy gain  -0.5301181E-01 Eh

generating ANC from exact Hessian ...
Using Lindh-Hessian (1995)
 Shifting diagonal of input Hessian by    6.8226800374106495E-003
 Lowest  eigenvalues of input Hessian
    0.000000    0.000000    0.000000    0.000000    0.000000    0.000000
    0.010000    0.011347    0.012742    0.013431    0.015813    0.019204
    0.022072    0.031574    0.032510    0.049861    0.050790    0.068334
 Highest eigenvalues
    1.898859    2.026967    2.346877    3.234120    3.733028    6.693560


........................................................................
.............................. CYCLE   43 ..............................
........................................................................

 iter      E             dE          RMSdq      gap      omega  full diag
   1    -28.1436155 -0.281436E+02  0.419E-02    1.76       0.0  T
   2    -28.1436163 -0.861322E-06  0.235E-02    1.76       1.0  T
   3    -28.1436173 -0.936711E-06  0.170E-02    1.76       1.4  T
   4    -28.1436181 -0.878595E-06  0.633E-03    1.76       3.8  T
   5    -28.1436189 -0.758137E-06  0.180E-03    1.76      13.4  T
   6    -28.1436189 -0.112998E-07  0.494E-04    1.76      49.1  T
   7    -28.1436189 -0.142314E-08  0.202E-04    1.76     119.8  T
     SCC iter.                  ...        0 min,  0.373 sec
     gradient                   ...        0 min,  0.094 sec
 * total energy  :   -27.8340853 Eh     change       -0.2627035E-04 Eh
   gradient norm :     0.0033225 Eh/α   predicted     0.0000000E+00 (-100.00%)
   displ. norm   :     0.0394869 α      lambda       -0.3824961E-04
   maximum displ.:     0.0204713 α      in ANC's #7, #4, #1, ...

........................................................................
.............................. CYCLE   44 ..............................
........................................................................

 iter      E             dE          RMSdq      gap      omega  full diag
   1    -28.1439057 -0.281439E+02  0.242E-02    1.76       0.0  T
   2    -28.1439058 -0.193780E-06  0.146E-02    1.76       1.7  T
   3    -28.1439052  0.666873E-06  0.878E-03    1.76       2.8  T
   4    -28.1439060 -0.784694E-06  0.238E-03    1.76      10.2  T
   5    -28.1439060 -0.689378E-07  0.129E-03    1.76      18.7  T
   6    -28.1439060 -0.171348E-07  0.394E-04    1.76      61.6  T
   7    -28.1439060 -0.170260E-09  0.142E-04    1.76     170.4  T
     SCC iter.                  ...        0 min,  0.369 sec
     gradient                   ...        0 min,  0.059 sec
 * total energy  :   -27.8341093 Eh     change       -0.2396440E-04 Eh
   gradient norm :     0.0011176 Eh/α   predicted    -0.1915512E-04 ( -20.07%)
   displ. norm   :     0.0625190 α      lambda       -0.2139898E-04
   maximum displ.:     0.0419229 α      in ANC's #4, #7, #8, ...

........................................................................
.............................. CYCLE   45 ..............................
........................................................................

 iter      E             dE          RMSdq      gap      omega  full diag
   1    -28.1440981 -0.281441E+02  0.494E-02    1.76       0.0  T
   2    -28.1440984 -0.369364E-06  0.236E-02    1.76       1.0  T
   3    -28.1440957  0.268616E-05  0.178E-02    1.76       1.4  T
   4    -28.1440994 -0.366390E-05  0.499E-03    1.76       4.9  T
   5    -28.1440996 -0.161291E-06  0.292E-03    1.76       8.3  T
   6    -28.1440996 -0.743769E-07  0.547E-04    1.76      44.4  T
   7    -28.1440996 -0.732243E-09  0.394E-04    1.76      61.5  T
     SCC iter.                  ...        0 min,  0.343 sec
     gradient                   ...        0 min,  0.085 sec
 * total energy  :   -27.8341228 Eh     change       -0.1346849E-04 Eh
   gradient norm :     0.0020916 Eh/α   predicted    -0.1071704E-04 ( -20.43%)
   displ. norm   :     0.0340021 α      lambda       -0.1274640E-04
   maximum displ.:     0.0260832 α      in ANC's #4, #3, #5, ...

........................................................................
.............................. CYCLE   46 ..............................
........................................................................

 iter      E             dE          RMSdq      gap      omega  full diag
   1    -28.1440062 -0.281440E+02  0.121E-02    1.76       0.0  T
   2    -28.1440062 -0.347581E-07  0.720E-03    1.76       3.4  T
   3    -28.1440060  0.144766E-06  0.437E-03    1.76       5.5  T
   4    -28.1440062 -0.166939E-06  0.114E-03    1.76      21.3  T
   5    -28.1440062 -0.144646E-07  0.595E-04    1.76      40.8  T
   6    -28.1440062 -0.418379E-08  0.161E-04    1.76     150.9  T
     SCC iter.                  ...        0 min,  0.346 sec
     gradient                   ...        0 min,  0.113 sec
 * total energy  :   -27.8341329 Eh     change       -0.1013042E-04 Eh
   gradient norm :     0.0011419 Eh/α   predicted    -0.6380002E-05 ( -37.02%)
   displ. norm   :     0.0951135 α      lambda       -0.1917420E-04
   maximum displ.:     0.0652537 α      in ANC's #4, #5, #3, ...

........................................................................
.............................. CYCLE   47 ..............................
........................................................................

 iter      E             dE          RMSdq      gap      omega  full diag
   1    -28.1437260 -0.281437E+02  0.289E-02    1.76       0.0  T
   2    -28.1437261 -0.983701E-07  0.172E-02    1.76       1.4  T
   3    -28.1437256  0.515041E-06  0.501E-03    1.76       4.8  T
   4    -28.1437261 -0.524512E-06  0.198E-03    1.76      12.3  T
   5    -28.1437262 -0.538140E-07  0.751E-04    1.76      32.3  T
   6    -28.1437262 -0.413939E-08  0.215E-04    1.76     112.7  T
     SCC iter.                  ...        0 min,  0.375 sec
     gradient                   ...        0 min,  0.002 sec
 * total energy  :   -27.8341505 Eh     change       -0.1763229E-04 Eh
   gradient norm :     0.0014683 Eh/α   predicted    -0.9627586E-05 ( -45.40%)
   displ. norm   :     0.0950705 α      lambda       -0.1262515E-04
   maximum displ.:     0.0602913 α      in ANC's #4, #5, #3, ...

........................................................................
.............................. CYCLE   48 ..............................
........................................................................

 iter      E             dE          RMSdq      gap      omega  full diag
   1    -28.1435899 -0.281436E+02  0.237E-02    1.76       0.0  T
   2    -28.1435901 -0.210275E-06  0.141E-02    1.76       1.7  T
   3    -28.1435899  0.141446E-06  0.867E-03    1.76       2.8  T
   4    -28.1435903 -0.335262E-06  0.134E-03    1.76      18.1  T
   5    -28.1435903  0.218434E-08  0.696E-04    1.76      34.8  T
   6    -28.1435903 -0.720850E-08  0.316E-04    1.76      76.7  T
     SCC iter.                  ...        0 min,  0.236 sec
     gradient                   ...        0 min,  0.005 sec
 * total energy  :   -27.8341658 Eh     change       -0.1523703E-04 Eh
   gradient norm :     0.0023606 Eh/α   predicted    -0.6339058E-05 ( -58.40%)
   displ. norm   :     0.1275644 α      lambda       -0.2770944E-04
   maximum displ.:     0.0743565 α      in ANC's #5, #4, #3, ...

........................................................................
.............................. CYCLE   49 ..............................
........................................................................

 iter      E             dE          RMSdq      gap      omega  full diag
   1    -28.1435154 -0.281435E+02  0.308E-02    1.76       0.0  T
   2    -28.1435157 -0.374323E-06  0.191E-02    1.76       1.3  T
   3    -28.1435156  0.172393E-06  0.118E-02    1.76       2.1  T
   4    -28.1435161 -0.572207E-06  0.121E-03    1.76      20.1  T
   5    -28.1435161 -0.541693E-09  0.823E-04    1.76      29.5  T
   6    -28.1435161 -0.897710E-08  0.336E-04    1.76      72.2  T
     SCC iter.                  ...        0 min,  0.335 sec
     gradient                   ...        0 min,  0.049 sec
 * total energy  :   -27.8341856 Eh     change       -0.1977330E-04 Eh
   gradient norm :     0.0023350 Eh/α   predicted    -0.1408109E-04 ( -28.79%)
   displ. norm   :     0.0917364 α      lambda       -0.1894961E-04
   maximum displ.:     0.0549209 α      in ANC's #5, #4, #3, ...

........................................................................
.............................. CYCLE   50 ..............................
........................................................................

 iter      E             dE          RMSdq      gap      omega  full diag
   1    -28.1437187 -0.281437E+02  0.229E-02    1.76       0.0  T
   2    -28.1437188 -0.160692E-06  0.144E-02    1.76       1.7  T
   3    -28.1437185  0.269084E-06  0.889E-03    1.76       2.7  T
   4    -28.1437190 -0.456946E-06  0.150E-03    1.76      16.2  T
   5    -28.1437190 -0.270614E-07  0.574E-04    1.76      42.3  T
   6    -28.1437190 -0.281011E-08  0.238E-04    1.76     101.8  T
     SCC iter.                  ...        0 min,  0.417 sec
     gradient                   ...        0 min,  0.056 sec
 * total energy  :   -27.8341984 Eh     change       -0.1285844E-04 Eh
   gradient norm :     0.0017820 Eh/α   predicted    -0.9553150E-05 ( -25.71%)
   displ. norm   :     0.0921168 α      lambda       -0.8948971E-05
   maximum displ.:     0.0516470 α      in ANC's #5, #4, #3, ...

........................................................................
.............................. CYCLE   51 ..............................
........................................................................

 iter      E             dE          RMSdq      gap      omega  full diag
   1    -28.1439212 -0.281439E+02  0.247E-02    1.75       0.0  T
   2    -28.1439213 -0.673751E-07  0.144E-02    1.75       1.7  T
   3    -28.1439211  0.223008E-06  0.418E-03    1.75       5.8  T
   4    -28.1439213 -0.206899E-06  0.197E-03    1.75      12.3  T
   5    -28.1439213 -0.464836E-07  0.616E-04    1.75      39.4  T
   6    -28.1439213 -0.484561E-08  0.157E-04    1.75     154.3  T
     SCC iter.                  ...        0 min,  0.338 sec
     gradient                   ...        0 min,  0.030 sec
 * total energy  :   -27.8342063 Eh     change       -0.7885067E-05 Eh
   gradient norm :     0.0008208 Eh/α   predicted    -0.4490375E-05 ( -43.05%)
   displ. norm   :     0.0677184 α      lambda       -0.2976273E-05
   maximum displ.:     0.0418218 α      in ANC's #4, #5, #3, ...

[...]
 total energy gain   :        -3.5446899 Eh    -2224.3265 kcal/mol
 total RMSD          :         2.0876986 a0        1.1048 Å
 total power (kW/mol):      -169.2105847 (step) -296.9316 (real)
------------------------------------------------------------------------

 ANCopt (total)                0 d,  0 h,  0 min, 31.343 sec
 optimizer setup                ...        0 min,  0.000 sec (  0.001%)
 model hessian                  ...        0 min,  0.014 sec (  0.044%)
 ANC generation                 ...        0 min,  0.003 sec (  0.011%)
 coordinate transformation      ...        0 min,  0.001 sec (  0.004%)
 single point calculation       ...        0 min, 30.913 sec ( 98.630%)
 optimization log               ...        0 min,  0.138 sec (  0.440%)
 hessian update                 ...        0 min,  0.216 sec (  0.688%)
 rational function              ...        0 min,  0.027 sec (  0.087%)

================
 final structure:
================
17
 xtb: 6.7.1 (edcfbbe)
C           -1.50551355518018       -0.98609797445036       -1.23861830894255
C           -0.90387998847963       -0.09746701322669       -0.23469012645128
C           -1.19457851591054        1.12332822245830        0.31934546776088
C           -0.06078612851666        1.81420528890529        0.75797161517580
N            1.10251813061080        1.29581175243705        0.41284460796197
N            0.96989889941482        0.11448454837654       -0.11355721465378
C            1.94443287694878       -0.43792999740073       -0.99896133581923
S            0.19445025160839       -1.25967439467061        1.26618384465331
O            0.11073378277889       -0.47193228614082        2.48885168898997
H           -1.75166013305293       -0.43018070845088       -2.14475813505040
H           -0.82687466543615       -1.79590020499521       -1.49696232952095
H           -2.41984379777118       -1.42797311391100       -0.84032806085217
H           -2.18021426504982        1.54433235552324        0.37733776048854
H           -0.06819351358824        2.76300299665664        1.26021637187632
H            2.05282735932802        0.19352380842289       -1.88481401340126
H            1.62728819932106       -1.43524432120708       -1.29875980032958
H            2.90939506296366       -0.50628795833411       -0.49129603188000

 Bond Distances (Angstroems)
 ---------------------------
C1-C2=1.4695         C1-H10=1.0912        C1-H11=1.0877        C1-H12=1.0908        C2-C1=1.4695         C2-C3=1.3718         
C2-N6=1.8896         C2-S8=2.1931         C3-C2=1.3718         C3-C4=1.3983         C3-H13=1.0734        C4-C3=1.3983         
C4-N5=1.3195         C4-H14=1.0736        N5-C4=1.3195         N5-N6=1.3001         N6-C2=1.8896         N6-N5=1.3001         
N6-C7=1.4279         N6-S8=2.0960         C7-N6=1.4279         C7-H15=1.0933        C7-H16=1.0886        C7-H17=1.0925        
S8-C2=2.1931         S8-N6=2.0960         S8-O9=1.4569         O9-S8=1.4569         H10-C1=1.0912        H11-C1=1.0877        
H12-C1=1.0908        H13-C3=1.0734        H14-C4=1.0736        H15-C7=1.0933        H16-C7=1.0886        H17-C7=1.0925        
 C  H  Rav=1.0864 sigma=0.0077  Rmin=1.0734  Rmax=1.0933     8
 C  C  Rav=1.4132 sigma=0.0413  Rmin=1.3718  Rmax=1.4695     3
 N  C  Rav=1.5457 sigma=0.2472  Rmin=1.3195  Rmax=1.8896     3
 N  N  Rav=1.3001 sigma=0.0000  Rmin=1.3001  Rmax=1.3001     1
 S  C  Rav=2.1931 sigma=0.0000  Rmin=2.1931  Rmax=2.1931     1
 S  N  Rav=2.0960 sigma=0.0000  Rmin=2.0960  Rmax=2.0960     1
 S  O  Rav=1.4569 sigma=0.0000  Rmin=1.4569  Rmax=1.4569     1

 selected bond angles (degree)
 --------------------
H10-C1-C2=110.58               H11-C1-C2=110.92               H11-C1-H10=108.83              H12-C1-C2=109.80               
H12-C1-H10=108.69              H12-C1-H11=107.95              C3-C2-C1=136.66                N6-C2-C1=121.17                
N6-C2-C3= 94.84                S8-C2-C1=110.62                S8-C2-C3=107.54                S8-C2-N6= 61.25                
C4-C3-C2=113.24                H13-C3-C2=124.44               H13-C3-C4=122.27               N5-C4-C3=116.02                
H14-C4-C3=125.30               H14-C4-N5=118.40               N6-N5-C4=111.90                N5-N6-C2=103.24                
C7-N6-C2=126.42                C7-N6-N5=122.21                S8-N6-C2= 66.53                S8-N6-N5=111.53                
S8-N6-C7=114.02                H15-C7-N6=110.28               H16-C7-N6=109.05               H16-C7-H15=109.57              
H17-C7-N6=109.81               H17-C7-H15=108.97              H17-C7-H16=109.15              N6-S8-C2= 52.22                
O9-S8-C2=105.01                O9-S8-N6=102.66                

 selected dihedral angles (degree)
 ---------------------------------
C3-C2-C1-H10= 49.00           C3-C2-C1-H11=169.84           C3-C2-C1-H12=289.06           N6-C2-C1-H10=267.30           
N6-C2-C1-H11= 28.14           N6-C2-C1-H12=147.36           S8-C2-C1-H10=199.20           S8-C2-C1-H11=320.05           
S8-C2-C1-H12= 79.27           C4-C3-C2-C1=207.75            C4-C3-C2-N6=355.61            C4-C3-C2-S8= 56.95            
H13-C3-C2-C1= 24.97           H13-C3-C2-N6=172.82           H13-C3-C2-S8=234.17           N5-C4-C3-C2=  9.17            
N5-C4-C3-H13=191.88           H14-C4-C3-C2=182.98           H14-C4-C3-H13=  5.69          N6-N5-C4-C3=350.47            
N6-N5-C4-H14=176.21           C2-N6-N5-C4=  5.64            C7-N6-N5-C4=155.98            S8-N6-N5-C4=295.94            
H15-C7-N6-C2= 82.80           H15-C7-N6-N5=299.57           H15-C7-N6-S8=160.50           H16-C7-N6-C2=322.45           
H16-C7-N6-N5=179.22           H16-C7-N6-S8= 40.15           H17-C7-N6-C2=202.90           H17-C7-N6-N5= 59.67           
H17-C7-N6-S8=280.60           N6-S8-C2-C1=115.11            N6-S8-C2-C3=274.15            O9-S8-C2-C1=209.66            
O9-S8-C2-C3=  8.70            O9-S8-C2-N6= 94.55            C2-S8-N6-N5= 95.58            C2-S8-N6-C7=239.00            
O9-S8-N6-C2=260.69            O9-S8-N6-N5=356.27            O9-S8-N6-C7=139.69            
           -------------------------------------------------
          |                Final Singlepoint                |
           -------------------------------------------------

          ...................................................
          :                      SETUP                      :
          :.................................................:
          :  # basis functions                  50          :
          :  # atomic orbitals                  49          :
          :  # shells                           27          :
          :  # electrons                        50          :
          :  max. iterations                   250          :
          :  Hamiltonian                  GFN2-xTB          :
          :  restarted?                      false          :
          :  GBSA solvation                  false          :
          :  PC potential                    false          :
          :  electronic temp.          300.0000000     K    :
          :  accuracy                    1.0000000          :
          :  -> integral cutoff          0.2500000E+02      :
          :  -> integral neglect         0.1000000E-07      :
          :  -> SCF convergence          0.1000000E-05 Eh   :
          :  -> wf. convergence          0.1000000E-03 e    :
          :  Broyden damping             0.4000000          :
          :  net charge                          0          :
          :  unpaired electrons                  0          :
          ...................................................

 iter      E             dE          RMSdq      gap      omega  full diag
   1    -28.1438884 -0.281439E+02  0.452E-05    1.75       0.0  T
   2    -28.1438884 -0.809663E-11  0.250E-05    1.75     969.6  T
   3    -28.1438884 -0.406430E-11  0.161E-05    1.75    1505.5  T

   *** convergence criteria satisfied after 3 iterations ***

         #    Occupation            Energy/Eh            Energy/eV
      -------------------------------------------------------------
         1        2.0000           -0.7366739             -20.0459
       ...           ...                  ...                  ...
        19        2.0000           -0.4713902             -12.8272
        20        2.0000           -0.4621836             -12.5767
        21        2.0000           -0.4565301             -12.4228
        22        2.0000           -0.4209573             -11.4548
        23        2.0000           -0.4027862             -10.9604
        24        2.0000           -0.3803856             -10.3508
        25        2.0000           -0.3357660              -9.1367 (HOMO)
        26                         -0.2713952              -7.3850 (LUMO)
        27                         -0.2426950              -6.6041
        28                         -0.2252005              -6.1280
        29                         -0.1572443              -4.2788
        30                         -0.1343128              -3.6548
       ...                                ...                  ...
        49                          0.8940660              24.3288
      -------------------------------------------------------------
                  HL-Gap            0.0643708 Eh            1.7516 eV
             Fermi-level           -0.3035806 Eh           -8.2608 eV

 SCC (total)                   0 d,  0 h,  0 min,  0.298 sec
 SCC setup                      ...        0 min,  0.005 sec (  1.754%)
 Dispersion                     ...        0 min,  0.017 sec (  5.621%)
 classical contributions        ...        0 min,  0.008 sec (  2.806%)
 integral evaluation            ...        0 min,  0.020 sec (  6.624%)
 iterations                     ...        0 min,  0.177 sec ( 59.493%)
 molecular gradient             ...        0 min,  0.070 sec ( 23.489%)
 printout                       ...        0 min,  0.001 sec (  0.204%)

         :::::::::::::::::::::::::::::::::::::::::::::::::::::
         ::                     SUMMARY                     ::
         :::::::::::::::::::::::::::::::::::::::::::::::::::::
         :: total energy             -27.834210028329 Eh    ::
         :: gradient norm              0.000652871114 Eh/a0 ::
         :: HOMO-LUMO gap              1.751617859558 eV    ::
         ::.................................................::
         :: SCC energy               -28.143810609272 Eh    ::
         :: -> isotropic ES            0.039360499850 Eh    ::
         :: -> anisotropic ES         -0.002694360503 Eh    ::
         :: -> anisotropic XC          0.015785153951 Eh    ::
         :: -> dispersion             -0.015810990750 Eh    ::
         :: repulsion energy           0.308988894208 Eh    ::
         :: add. restraining           0.000611686735 Eh    ::
         :: total charge              -0.000000000000 e     ::
         :::::::::::::::::::::::::::::::::::::::::::::::::::::

           -------------------------------------------------
          |                Property Printout                |
           -------------------------------------------------

    * Orbital Energies and Occupations

         #    Occupation            Energy/Eh            Energy/eV
      -------------------------------------------------------------
         1        2.0000           -0.7366739             -20.0459
       ...           ...                  ...                  ...
        13        2.0000           -0.5123804             -13.9426
        14        2.0000           -0.5070933             -13.7987
        15        2.0000           -0.5025321             -13.6746
        16        2.0000           -0.4926600             -13.4060
        17        2.0000           -0.4887142             -13.2986
        18        2.0000           -0.4842461             -13.1770
        19        2.0000           -0.4713902             -12.8272
        20        2.0000           -0.4621836             -12.5767
        21        2.0000           -0.4565301             -12.4228
        22        2.0000           -0.4209573             -11.4548
        23        2.0000           -0.4027862             -10.9604
        24        2.0000           -0.3803856             -10.3508
        25        2.0000           -0.3357660              -9.1367 (HOMO)
        26                         -0.2713952              -7.3850 (LUMO)
        27                         -0.2426950              -6.6041
        28                         -0.2252005              -6.1280
        29                         -0.1572443              -4.2788
        30                         -0.1343128              -3.6548
        31                          0.0084074               0.2288
        32                          0.0472495               1.2857
        33                          0.0577616               1.5718
        34                          0.0891173               2.4250
        35                          0.1061478               2.8884
        36                          0.1140731               3.1041
       ...                                ...                  ...
        49                          0.8940660              24.3288
      -------------------------------------------------------------
                  HL-Gap            0.0643708 Eh            1.7516 eV
             Fermi-level           -0.3035806 Eh           -8.2608 eV

     #   Z          covCN         q      C6AA      α(0)
     1   6 C        3.753    -0.107    22.598     6.779
     2   6 C        3.329     0.009    25.508     8.018
     3   6 C        2.920    -0.069    29.724     8.941
     4   6 C        2.966     0.049    26.887     8.505
     5   7 N        1.928    -0.182    25.738     7.522
     6   7 N        3.323     0.026    20.791     6.772
     7   6 C        3.691    -0.055    21.751     6.674
     8  16 S        2.394     0.229   132.057    19.341
     9   8 O        0.860    -0.408    21.849     6.267
    10   1 H        0.924     0.061     2.190     2.314
    11   1 H        0.925     0.061     2.188     2.313
    12   1 H        0.924     0.069     2.095     2.263
    13   1 H        0.926     0.052     2.293     2.368
    14   1 H        0.926     0.048     2.350     2.397
    15   1 H        0.924     0.071     2.078     2.254
    16   1 H        0.925     0.067     2.116     2.275
    17   1 H        0.924     0.079     1.989     2.205

 Mol. C6AA /au·bohr⁶  :       3906.420796
 Mol. C8AA /au·bohr⁸  :     103501.845205
 Mol. α(0) /au        :         97.209642


Wiberg/Mayer (AO) data.
largest (>0.10) Wiberg bond orders for each atom

 ---------------------------------------------------------------------------
     #   Z sym  total        # sym  WBO       # sym  WBO       # sym  WBO
 ---------------------------------------------------------------------------
     1   6 C    3.995 --     2 C    1.057    11 H    0.971    10 H    0.964
                            12 H    0.957
     2   6 C    3.936 --     3 C    1.443     1 C    1.057     6 N    0.565
                             8 S    0.551     5 N    0.158
     3   6 C    3.976 --     2 C    1.443     4 C    1.363    13 H    0.944
     4   6 C    3.977 --     5 N    1.431     3 C    1.363    14 H    0.966
     5   7 N    3.132 --     4 C    1.431     6 N    1.277     2 C    0.158
                             8 S    0.151
     6   7 N    3.655 --     5 N    1.277     7 C    1.014     2 C    0.565
                             8 S    0.544     9 O    0.101
     7   6 C    3.968 --     6 N    1.014    16 H    0.976    15 H    0.967
                            17 H    0.964
     8  16 S    3.356 --     9 O    1.863     2 C    0.551     6 N    0.544
                             5 N    0.151
     9   8 O    2.149 --     8 S    1.863     6 N    0.101
    10   1 H    0.996 --     1 C    0.964
    11   1 H    0.996 --     1 C    0.971
    12   1 H    0.995 --     1 C    0.957
    13   1 H    0.996 --     3 C    0.944
    14   1 H    0.997 --     4 C    0.966
    15   1 H    0.995 --     7 C    0.967
    16   1 H    0.995 --     7 C    0.976
    17   1 H    0.992 --     7 C    0.964
 ---------------------------------------------------------------------------

Topologies differ in total number of bonds
Writing topology from bond orders to xtbtopo.mol

molecular dipole:
                 x           y           z       tot (Debye)
 q only:       -0.014      -0.629      -2.010
   full:       -0.261      -0.572      -1.892       5.068
molecular quadrupole (traceless):
                xx          xy          yy          xz          yz          zz
 q only:        5.566      -1.980       3.606      -1.816       2.808      -9.172
  q+dip:        5.987      -3.238       2.928      -1.602       2.883      -8.916
   full:        5.231      -3.206       2.809      -1.951       2.070      -8.039

           -------------------------------------------------
          |                Geometry Summary                 |
           -------------------------------------------------

      molecular mass/u    :      144.1948042
   center of mass at/Å    :        0.1089467      -0.0851902       0.4250261
  moments of inertia/u·Å² :        0.3208260E+03   0.3382412E+03   0.3497574E+03
rotational constants/cm⁻¹ :        0.5254447E-01   0.4983909E-01   0.4819807E-01

 * 15 selected distances

     #   Z          #   Z                                           value/Å
     1   6 C        2   6 C                                       1.4695238 (max)
     2   6 C        3   6 C                                       1.3717880
     3   6 C        4   6 C                                       1.3982809
     4   6 C        5   7 N                                       1.3195157
     5   7 N        6   7 N                                       1.3000850
     6   7 N        7   6 C                                       1.4278722
     8  16 S        9   8 O                                       1.4568676
     1   6 C       10   1 H                                       1.0912020
     1   6 C       11   1 H                                       1.0876912
     1   6 C       12   1 H                                       1.0908202
     3   6 C       13   1 H                                       1.0733525 (min)
     4   6 C       14   1 H                                       1.0735558
     7   6 C       15   1 H                                       1.0932605
     7   6 C       16   1 H                                       1.0886211
     7   6 C       17   1 H                                       1.0924967

 * 5 distinct bonds (by element types)

   Z      Z             #   av. dist./Å        max./Å        min./Å
   1 H    6 C           8     1.0863750     1.0932605     1.0733525
   6 C    6 C           3     1.4131976     1.4695238     1.3717880
   6 C    7 N           2     1.3736940     1.4278722     1.3195157
   7 N    7 N           1     1.3000850     1.3000850     1.3000850
   8 O   16 S           1     1.4568676     1.4568676     1.4568676


optimized geometry written to: xtbopt.xyz


           -------------------------------------------------
          | TOTAL ENERGY              -27.834210028329 Eh   |
          | GRADIENT NORM               0.000652871114 Eh/α |
          | HOMO-LUMO GAP               1.751617859558 eV   |
           -------------------------------------------------

------------------------------------------------------------------------
 * finished run on 2026/01/15 at 09:47:21.403     
------------------------------------------------------------------------
 total:
 * wall-time:     0 d,  0 h,  0 min, 32.886 sec
 *  cpu-time:     0 d,  0 h,  3 min,  6.426 sec
 * ratio c/w:     5.669 speedup
 SCF:
 * wall-time:     0 d,  0 h,  0 min,  1.067 sec
 *  cpu-time:     0 d,  0 h,  0 min,  5.414 sec
 * ratio c/w:     5.076 speedup
 ANC optimizer:
 * wall-time:     0 d,  0 h,  0 min, 31.653 sec
 *  cpu-time:     0 d,  0 h,  3 min,  0.524 sec
 * ratio c/w:     5.703 speedup

