18
 energy: -28.296066123857 gnorm: 0.000470386821 xtb: 6.7.1 (edcfbbe)
C           -2.48609837527003        0.51487049091731       -0.76936797742697
C           -1.33464005630025        0.00326646477589       -0.00694253335693
C           -0.77088090220474       -1.27145663737963        0.07776291322929
C            0.57428967026405       -1.26614181830774        0.32263240043593
N            1.17638061567420       -0.06253918323503        0.15119551153557
C            2.55718004248601        0.12382327719781       -0.19393588609944
N            0.29116642258457        0.96832550017243        0.04358514931018
S           -0.83485184805726        1.09379069466084        1.82327851578661
O            0.05574871765871        0.15615488763061        2.52355415665585
H           -2.57175708093816        1.59269715971714       -0.65638065382900
H           -3.39700163163736        0.05968882722352       -0.37960386342133
H           -2.40387875163201        0.27063479034011       -1.83092719049606
H           -1.34293039748573       -2.17416466080379       -0.03461347450926
H            1.19017410270886       -2.12648632451232        0.50962226216050
H            3.08119172566509       -0.82472551932892       -0.10718234117457
H            2.65325071498652        0.49307113291179       -1.22264493691020
H            3.02093218133536        0.84745767569069        0.48089317120329
H            0.54172585018371        1.60173324232375       -0.73092522309538
