      -----------------------------------------------------------      
     |                   =====================                   |     
     |                           x T B                           |     
     |                   =====================                   |     
     |                         S. Grimme                         |     
     |          Mulliken Center for Theoretical Chemistry        |     
     |                    University of Bonn                     |     
      -----------------------------------------------------------      

   * xtb version 6.7.1 (edcfbbe) compiled by 'conda@c0858423619e' on 2025-09-04

   xtb is free software: you can redistribute it and/or modify it under
   the terms of the GNU Lesser General Public License as published by
   the Free Software Foundation, either version 3 of the License, or
   (at your option) any later version.
   
   xtb is distributed in the hope that it will be useful,
   but WITHOUT ANY WARRANTY; without even the implied warranty of
   MERCHANTABILITY or FITNESS FOR A PARTICULAR PURPOSE.  See the
   GNU Lesser General Public License for more details.
   
   Cite this work as:
   * C. Bannwarth, E. Caldeweyher, S. Ehlert, A. Hansen, P. Pracht,
     J. Seibert, S. Spicher, S. Grimme, WIREs Comput. Mol. Sci., 2020, 11,
     e01493. DOI: 10.1002/wcms.1493
   
   for GFN2-xTB:
   * C. Bannwarth, S. Ehlert and S. Grimme., J. Chem. Theory Comput., 2019,
     15, 1652-1671. DOI: 10.1021/acs.jctc.8b01176
   for GFN1-xTB:
   * S. Grimme, C. Bannwarth, P. Shushkov, J. Chem. Theory Comput., 2017,
     13, 1989-2009. DOI: 10.1021/acs.jctc.7b00118
   for GFN0-xTB:
   * P. Pracht, E. Caldeweyher, S. Ehlert, S. Grimme, ChemRxiv, 2019, preprint.
     DOI: 10.26434/chemrxiv.8326202.v1
   for GFN-FF:
   * S. Spicher and S. Grimme, Angew. Chem. Int. Ed., 2020, 59, 15665-15673.
     DOI: 10.1002/anie.202004239
   
   for ALPB and GBSA implicit solvation:
   * S. Ehlert, M. Stahn, S. Spicher, S. Grimme, J. Chem. Theory Comput.,
     2021, 17, 4250-4261. DOI: 10.1021/acs.jctc.1c00471
   
   for ddCOSMO and CPCM-X implicit solvation:
   * M. Stahn, S. Ehlert, S. Grimme, J. Phys. Chem. A,
     2023, XX, XXXX-XXXX. DOI: 10.1021/acs.jpca.3c04382
   
   for DFT-D4:
   * E. Caldeweyher, C. Bannwarth and S. Grimme, J. Chem. Phys., 2017,
     147, 034112. DOI: 10.1063/1.4993215
   * E. Caldeweyher, S. Ehlert, A. Hansen, H. Neugebauer, S. Spicher,
     C. Bannwarth and S. Grimme, J. Chem. Phys., 2019, 150, 154122.
     DOI: 10.1063/1.5090222
   * E. Caldeweyher, J.-M. Mewes, S. Ehlert and S. Grimme, Phys. Chem. Chem. Phys.
     2020, 22, 8499-8512. DOI: 10.1039/D0CP00502A
   
   for sTDA-xTB:
   * S. Grimme and C. Bannwarth, J. Chem. Phys., 2016, 145, 054103.
     DOI: 10.1063/1.4959605
   
   in the mass-spec context:
   * V. Asgeirsson, C. Bauer and S. Grimme, Chem. Sci., 2017, 8, 4879.
     DOI: 10.1039/c7sc00601b
   * J. Koopman and S. Grimme, ACS Omega 2019, 4, 12, 15120-15133.
     DOI: 10.1021/acsomega.9b02011
   
   for metadynamics refer to:
   * S. Grimme, J. Chem. Theory Comput., 2019, 155, 2847-2862
     DOI: 10.1021/acs.jctc.9b00143
   
   for SPH calculations refer to:
   * S. Spicher and S. Grimme, J. Chem. Theory Comput., 2021, 17, 1701-1714
     DOI: 10.1021/acs.jctc.0c01306
   
   for ONIOM refer to:
   * C. Plett, A. Katbashev, S. Ehlert, S. Grimme, M. Bursch,
     Phys. Chem. Chem. Phys., 2023, 25, 17860-17868. DOI: 10.1039/D3CP02178E
   
   for DIPRO refer to:
   * J. Kohn, N. Gildemeister, S. Grimme, D. Fazzi, A. Hansen,
     J. Chem. Phys., 2023, just accepted.
   
   for PTB refer to:
   * S. Grimme, M. Mueller, A. Hansen, J. Chem. Phys., 2023, 158, 124111.
     DOI: 10.1063/5.0137838
   
   with help from (in alphabetical order)
   P. Atkinson, C. Bannwarth, F. Bohle, G. Brandenburg, E. Caldeweyher
   M. Checinski, S. Dohm, S. Ehlert, S. Ehrlich, I. Gerasimov, C. Hölzer
   A. Katbashev, J. Kohn, J. Koopman, C. Lavigne, S. Lehtola, F. März, M. Müller,
   F. Musil, H. Neugebauer, J. Pisarek, C. Plett, P. Pracht, F. Pultar,
   J. Seibert, P. Shushkov, S. Spicher, M. Stahn, M. Steiner, T. Strunk,
   J. Stückrath, T. Rose, and J. Unsleber
   
 * started run on 2026/01/15 at 09:47:28.984     
   ID    Z sym.   atoms
    1    6 C      1-4, 6
    2    7 N      5, 7
    3   16 S      8
    4    8 O      9
    5    1 H      10-18
constraining bond 8 2 to    2.2000000 Å, actual value:    1.7683859 Å
constraining bond 8 7 to    2.1000000 Å, actual value:    1.7451647 Å
constraining bond 2 7 to    1.9000000 Å, actual value:    2.7199763 Å

           -------------------------------------------------
          |                Calculation Setup                |
           -------------------------------------------------

          program call               : /h/28/cicsy/miniforge3/envs/elagente/bin/xtb N4-Me_TDSO_pathwayB.xyz --opt --gfn 2 -P 4 --chrg 0 --input detailed_input.inp
          coordinate file            : N4-Me_TDSO_pathwayB.xyz
          omp threads                :                     4


           -------------------------------------------------
          |                 G F N 2 - x T B                 |
           -------------------------------------------------

        Reference                      10.1021/acs.jctc.8b01176
      * Hamiltonian:
        H0-scaling (s, p, d)           1.850000    2.230000    2.230000
        zeta-weighting                 0.500000
      * Dispersion:
        s8                             2.700000
        a1                             0.520000
        a2                             5.000000
        s9                             5.000000
      * Repulsion:
        kExp                           1.500000    1.000000
        rExp                           1.000000
      * Coulomb:
        alpha                          2.000000
        third order                    shell-resolved
        anisotropic                    true
        a3                             3.000000
        a5                             4.000000
        cn-shift                       1.200000
        cn-exp                         4.000000
        max-rad                        5.000000


          ...................................................
          :                      SETUP                      :
          :.................................................:
          :  # basis functions                  51          :
          :  # atomic orbitals                  50          :
          :  # shells                           28          :
          :  # electrons                        51          :
          :  max. iterations                   250          :
          :  Hamiltonian                  GFN2-xTB          :
          :  restarted?                      false          :
          :  GBSA solvation                  false          :
          :  PC potential                    false          :
          :  electronic temp.          300.0000000     K    :
          :  accuracy                    1.0000000          :
          :  -> integral cutoff          0.2500000E+02      :
          :  -> integral neglect         0.1000000E-07      :
          :  -> SCF convergence          0.1000000E-05 Eh   :
          :  -> wf. convergence          0.1000000E-03 e    :
          :  Broyden damping             0.4000000          :
          :  net charge                          0          :
          :  unpaired electrons                  0          :
          ...................................................

 iter      E             dE          RMSdq      gap      omega  full diag
   1    -28.5020609 -0.285021E+02  0.427E+00    1.60       0.0  T
   2    -28.5948011 -0.927402E-01  0.338E+00    1.54       1.0  T
   3    -28.6162426 -0.214415E-01  0.187E+00    1.55       1.0  T
   4    -28.6063194  0.992316E-02  0.931E-01    1.52       1.0  T
   5    -28.6189695 -0.126501E-01  0.331E-01    1.40       1.0  T
   6    -28.6196293 -0.659795E-03  0.119E-01    1.44       1.0  T
   7    -28.6196690 -0.397628E-04  0.429E-02    1.44       1.0  T
   8    -28.6196729 -0.383878E-05  0.263E-02    1.43       1.0  T
   9    -28.6196752 -0.234353E-05  0.938E-03    1.44       2.5  T
  10    -28.6196755 -0.316343E-06  0.339E-03    1.43       7.0  T
  11    -28.6196755 -0.204798E-07  0.125E-03    1.43      18.9  T
  12    -28.6196755 -0.232571E-08  0.291E-04    1.43      81.0  T
  13    -28.6196755 -0.170743E-09  0.104E-04    1.43     226.4  T

   *** convergence criteria satisfied after 13 iterations ***

         #    Occupation            Energy/Eh            Energy/eV
      -------------------------------------------------------------
         1        2.0000           -0.7398987             -20.1337
       ...           ...                  ...                  ...
        20        2.0000           -0.4493811             -12.2283
        21        2.0000           -0.4387026             -11.9377
        22        2.0000           -0.4149103             -11.2903
        23        2.0000           -0.3963899             -10.7863
        24        2.0000           -0.3697105             -10.0603
        25        2.0000           -0.3648949              -9.9293
        26        1.0000           -0.2661752              -7.2430 (HOMO)
        27                         -0.2134454              -5.8081 (LUMO)
        28                         -0.1775061              -4.8302
        29                         -0.1269793              -3.4553
        30                         -0.0804349              -2.1887
        31                         -0.0601275              -1.6362
       ...                                ...                  ...
        50                          0.7875943              21.4315
      -------------------------------------------------------------
                  HL-Gap            0.0527299 Eh            1.4349 eV
             Fermi-level           -0.2776727 Eh           -7.5559 eV

 SCC (total)                   0 d,  0 h,  0 min,  1.374 sec
 SCC setup                      ...        0 min,  0.017 sec (  1.270%)
 Dispersion                     ...        0 min,  0.008 sec (  0.596%)
 classical contributions        ...        0 min,  0.005 sec (  0.330%)
 integral evaluation            ...        0 min,  0.005 sec (  0.360%)
 iterations                     ...        0 min,  1.151 sec ( 83.760%)
 molecular gradient             ...        0 min,  0.188 sec ( 13.665%)
 printout                       ...        0 min,  0.000 sec (  0.017%)

         :::::::::::::::::::::::::::::::::::::::::::::::::::::
         ::                     SUMMARY                     ::
         :::::::::::::::::::::::::::::::::::::::::::::::::::::
         :: total energy             -24.810675859449 Eh    ::
         :: gradient norm              3.615838049112 Eh/a0 ::
         :: HOMO-LUMO gap              1.434852714469 eV    ::
         ::.................................................::
         :: SCC energy               -28.619642719095 Eh    ::
         :: -> isotropic ES            0.052784153326 Eh    ::
         :: -> anisotropic ES          0.005249710970 Eh    ::
         :: -> anisotropic XC          0.014448126913 Eh    ::
         :: -> dispersion             -0.015607278584 Eh    ::
         :: repulsion energy           0.293039968040 Eh    ::
         :: add. restraining           3.515926891606 Eh    ::
         :: total charge               0.000000000000 e     ::
         :::::::::::::::::::::::::::::::::::::::::::::::::::::

      ----------------------------------------------------------- 
     |                   =====================                   |
     |                        A N C O P T                        |
     |                   =====================                   |
     |               Approximate Normal Coordinate               |
     |                Rational Function Optimizer                |
      ----------------------------------------------------------- 
      ----------------------------------------------------------- 
     |                   =====================                   |
     |                        A N C O P T                        |
     |                   =====================                   |
     |               Approximate Normal Coordinate               |
     |                Rational Function Optimizer                |
      ----------------------------------------------------------- 

          ...................................................
          :                      SETUP                      :
          :.................................................:
          :   optimization level            normal          :
          :   max. optcycles                   200          :
          :   ANC micro-cycles                  20          :
          :   degrees of freedom                48          :
          :.................................................:
          :   RF solver                   davidson          :
          :   write xtbopt.log                true          :
          :   linear?                        false          :
          :   energy convergence         0.5000000E-05 Eh   :
          :   grad. convergence          0.1000000E-02 Eh/α :
          :   maxmium RF displ.          1.0000000          :
          :   Hlow (freq-cutoff)         0.1000000E-01      :
          :   Hmax (freq-cutoff)         5.0000000          :
          :   S6 in model hess.         20.0000000          :
          ...................................................

generating ANC from exact Hessian ...
Using Lindh-Hessian (1995)
 Shifting diagonal of input Hessian by   0.85643403255397155     
 Lowest  eigenvalues of input Hessian
    0.010000    0.000000    0.000000    0.000000    0.000000    0.000000
    0.000000    0.861319    0.864028    0.867411    0.868980    0.872094
    0.883768    0.886518    0.893845    0.897448    0.906157    0.911715
 Highest eigenvalues
    2.578282    2.631381    2.907927    2.993715    6.800757    8.010601


........................................................................
.............................. CYCLE    1 ..............................
........................................................................

 iter      E             dE          RMSdq      gap      omega  full diag
   1    -28.6196755 -0.286197E+02  0.362E-05    1.43       0.0  T
   2    -28.6196755 -0.617462E-11  0.216E-05    1.43    1088.9  T
   3    -28.6196755 -0.204636E-11  0.133E-05    1.43    1767.4  T
     SCC iter.                  ...        0 min,  0.303 sec
     gradient                   ...        0 min,  0.181 sec
 * total energy  :   -24.8106759 Eh     change       -0.3221956E-10 Eh
   gradient norm :     3.6157694 Eh/α   predicted     0.0000000E+00 (-100.00%)
   displ. norm   :     0.7289521 α      lambda       -0.2585398E+01
   maximum displ.:     0.3262566 α      in ANC's #46, #32, #42, ...

........................................................................
.............................. CYCLE    2 ..............................
........................................................................

 iter      E             dE          RMSdq      gap      omega  full diag
   1    -28.5566624 -0.285567E+02  0.187E+00    0.52       0.0  T
   2    -28.5493516  0.731077E-02  0.178E+00    0.84       1.0  T
   3    -28.5749396 -0.255880E-01  0.745E-01    0.51       1.0  T
   4    -28.5757065 -0.766854E-03  0.291E-01    0.51       1.0  T
   5    -28.5760140 -0.307530E-03  0.102E-01    0.50       1.0  T
   6    -28.5760039  0.100823E-04  0.741E-02    0.50       1.0  T
   7    -28.5760317 -0.277947E-04  0.152E-02    0.50       1.6  T
   8    -28.5760323 -0.550513E-06  0.942E-03    0.50       2.5  T
   9    -28.5760328 -0.531299E-06  0.337E-03    0.50       7.0  T
  10    -28.5760329 -0.709050E-07  0.953E-04    0.50      24.7  T
  11    -28.5760329 -0.885591E-08  0.556E-04    0.50      42.4  T
     SCC iter.                  ...        0 min,  1.102 sec
     gradient                   ...        0 min,  0.183 sec
 * total energy  :   -26.9726119 Eh     change       -0.2161936E+01 Eh
   gradient norm :     2.3261414 Eh/α   predicted    -0.1979602E+01 (  -8.43%)
   displ. norm   :     0.7407459 α      lambda       -0.1698323E+01
   maximum displ.:     0.3260473 α      in ANC's #46, #32, #33, ...

........................................................................
.............................. CYCLE    3 ..............................
........................................................................

 iter      E             dE          RMSdq      gap      omega  full diag
   1    -28.4700715 -0.284701E+02  0.198E+00    1.35       0.0  T
   2    -28.4766619 -0.659045E-02  0.114E+00    0.82       1.0  T
   3    -28.4777956 -0.113373E-02  0.100E+00    1.16       1.0  T
   4    -28.4897536 -0.119579E-01  0.307E-01    1.00       1.0  T
   5    -28.4901105 -0.356919E-03  0.170E-01    0.94       1.0  T
   6    -28.4903551 -0.244599E-03  0.692E-02    0.96       1.0  T
   7    -28.4903622 -0.705939E-05  0.402E-02    0.97       1.0  T
   8    -28.4903747 -0.125055E-04  0.143E-02    0.97       1.7  T
   9    -28.4903751 -0.434487E-06  0.709E-03    0.97       3.3  T
  10    -28.4903752 -0.143183E-06  0.164E-03    0.97      14.4  T
  11    -28.4903752 -0.912278E-08  0.753E-04    0.97      31.3  T
  12    -28.4903752 -0.246365E-08  0.191E-04    0.97     123.3  T
     SCC iter.                  ...        0 min,  1.389 sec
     gradient                   ...        0 min,  0.177 sec
 * total energy  :   -28.0326401 Eh     change       -0.1060028E+01 Eh
   gradient norm :     0.7524518 Eh/α   predicted    -0.1315100E+01 (  24.06%)
   displ. norm   :     0.4158079 α      lambda       -0.2076339E+00
   maximum displ.:     0.3088623 α      in ANC's #1, #47, #32, ...

........................................................................
.............................. CYCLE    4 ..............................
........................................................................

 iter      E             dE          RMSdq      gap      omega  full diag
   1    -28.4459216 -0.284459E+02  0.802E-01    0.85       0.0  T
   2    -28.4444215  0.150005E-02  0.908E-01    1.09       1.0  T
   3    -28.4516704 -0.724889E-02  0.271E-01    0.97       1.0  T
   4    -28.4504910  0.117939E-02  0.343E-01    0.98       1.0  T
   5    -28.4520713 -0.158029E-02  0.705E-02    0.97       1.0  T
   6    -28.4520812 -0.987579E-05  0.191E-02    0.97       1.2  T
   7    -28.4520812 -0.255986E-07  0.894E-03    0.97       2.6  T
   8    -28.4520818 -0.563283E-06  0.444E-03    0.97       5.3  T
   9    -28.4520819 -0.148632E-06  0.183E-03    0.97      12.9  T
  10    -28.4520819 -0.110261E-07  0.615E-04    0.97      38.3  T
  11    -28.4520819 -0.228079E-08  0.258E-04    0.97      91.5  T
     SCC iter.                  ...        0 min,  1.203 sec
     gradient                   ...        0 min,  0.164 sec
 * total energy  :   -28.1412838 Eh     change       -0.1086437E+00 Eh
   gradient norm :     0.2404985 Eh/α   predicted    -0.1217665E+00 (  12.08%)
   displ. norm   :     0.1290171 α      lambda       -0.2489664E-01
   maximum displ.:     0.0556023 α      in ANC's #26, #29, #45, ...

........................................................................
.............................. CYCLE    5 ..............................
........................................................................

 iter      E             dE          RMSdq      gap      omega  full diag
   1    -28.4524557 -0.284525E+02  0.363E-01    0.95       0.0  T
   2    -28.4509617  0.149400E-02  0.485E-01    0.89       1.0  T
   3    -28.4538178 -0.285614E-02  0.140E-01    0.93       1.0  T
   4    -28.4537410  0.768491E-04  0.118E-01    0.93       1.0  T
   5    -28.4538925 -0.151509E-03  0.340E-02    0.93       1.0  T
   6    -28.4538977 -0.517547E-05  0.102E-02    0.93       2.3  T
   7    -28.4538982 -0.503290E-06  0.462E-03    0.93       5.1  T
   8    -28.4538983 -0.131353E-06  0.213E-03    0.93      11.1  T
   9    -28.4538983 -0.247558E-07  0.113E-03    0.93      20.9  T
  10    -28.4538983 -0.935495E-08  0.512E-04    0.93      46.1  T
  11    -28.4538983 -0.755204E-09  0.184E-04    0.93     128.4  T
     SCC iter.                  ...        0 min,  1.412 sec
     gradient                   ...        0 min,  0.203 sec
 * total energy  :   -28.1605917 Eh     change       -0.1930795E-01 Eh
   gradient norm :     0.1564941 Eh/α   predicted    -0.1265553E-01 ( -34.45%)
   displ. norm   :     0.7699126 α      lambda       -0.6428086E-01
   maximum displ.:     0.6674823 α      in ANC's #1, #26, #45, ...

........................................................................
.............................. CYCLE    6 ..............................
........................................................................

 iter      E             dE          RMSdq      gap      omega  full diag
   1    -28.4409869 -0.284410E+02  0.170E+00    1.17       0.0  T
   2    -28.4163113  0.246757E-01  0.194E+00    0.98       1.0  T
   3    -28.4566856 -0.403743E-01  0.633E-01    1.12       1.0  T
   4    -28.4561508  0.534818E-03  0.529E-01    1.02       1.0  T
   5    -28.4609808 -0.483004E-02  0.111E-01    1.07       1.0  T
   6    -28.4610755 -0.946846E-04  0.607E-02    1.07       1.0  T
   7    -28.4610742  0.128668E-05  0.327E-02    1.07       1.0  T
   8    -28.4610816 -0.742083E-05  0.129E-02    1.07       1.8  T
   9    -28.4610830 -0.138409E-05  0.435E-03    1.07       5.4  T
  10    -28.4610831 -0.105777E-06  0.108E-03    1.07      21.7  T
  11    -28.4610831 -0.352128E-08  0.468E-04    1.07      50.3  T
  12    -28.4610831 -0.113481E-08  0.230E-04    1.07     102.5  T
     SCC iter.                  ...        0 min,  2.202 sec
     gradient                   ...        0 min,  0.168 sec
 * total energy  :   -28.1699201 Eh     change       -0.9328390E-02 Eh
   gradient norm :     0.4643813 Eh/α   predicted    -0.5119215E-01 ( 448.78%)
   displ. norm   :     0.5178704 α      lambda       -0.8843677E-01
   maximum displ.:     0.3747886 α      in ANC's #1, #26, #25, ...

........................................................................
.............................. CYCLE    7 ..............................
........................................................................

 iter      E             dE          RMSdq      gap      omega  full diag
   1    -28.4379985 -0.284380E+02  0.172E+00    0.92       0.0  T
   2    -28.3640669  0.739316E-01  0.280E+00    1.04       1.0  T
   3    -28.4707780 -0.106711E+00  0.503E-01    0.86       1.0  T
   4    -28.4679552  0.282283E-02  0.592E-01    0.90       1.0  T
   5    -28.4718427 -0.388747E-02  0.253E-01    0.86       1.0  T
   6    -28.4723830 -0.540362E-03  0.457E-02    0.87       1.0  T
   7    -28.4723856 -0.251517E-05  0.234E-02    0.87       1.0  T
   8    -28.4723863 -0.718745E-06  0.116E-02    0.87       2.0  T
   9    -28.4723878 -0.156054E-05  0.460E-03    0.87       5.1  T
  10    -28.4723879 -0.585548E-07  0.175E-03    0.87      13.5  T
  11    -28.4723879 -0.439095E-08  0.649E-04    0.87      36.3  T
  12    -28.4723879 -0.324304E-08  0.185E-04    0.87     127.4  T
     SCC iter.                  ...        0 min,  1.459 sec
     gradient                   ...        0 min,  0.140 sec
 * total energy  :   -28.1902426 Eh     change       -0.2032243E-01 Eh
   gradient norm :     0.3136730 Eh/α   predicted    -0.5607733E-01 ( 175.94%)
   displ. norm   :     0.1837307 α      lambda       -0.2999308E-01
   maximum displ.:     0.0877116 α      in ANC's #26, #45, #29, ...

........................................................................
.............................. CYCLE    8 ..............................
........................................................................

 iter      E             dE          RMSdq      gap      omega  full diag
   1    -28.4796195 -0.284796E+02  0.424E-01    0.90       0.0  T
   2    -28.4777869  0.183264E-02  0.535E-01    0.89       1.0  T
   3    -28.4810231 -0.323627E-02  0.196E-01    0.90       1.0  T
   4    -28.4809453  0.778653E-04  0.136E-01    0.89       1.0  T
   5    -28.4811298 -0.184506E-03  0.359E-02    0.90       1.0  T
   6    -28.4811486 -0.188589E-04  0.145E-02    0.89       1.6  T
   7    -28.4811495 -0.915724E-06  0.515E-03    0.89       4.6  T
   8    -28.4811498 -0.212339E-06  0.257E-03    0.89       9.2  T
   9    -28.4811498 -0.288666E-07  0.149E-03    0.89      15.8  T
  10    -28.4811498 -0.141365E-07  0.451E-04    0.89      52.3  T
  11    -28.4811498 -0.663469E-09  0.236E-04    0.89      99.9  T
     SCC iter.                  ...        0 min,  1.401 sec
     gradient                   ...        0 min,  0.192 sec
 * total energy  :   -28.2078561 Eh     change       -0.1761355E-01 Eh
   gradient norm :     0.1671513 Eh/α   predicted    -0.1550277E-01 ( -11.98%)
   displ. norm   :     0.1907334 α      lambda       -0.1545924E-01
   maximum displ.:     0.1221529 α      in ANC's #1, #28, #16, ...

........................................................................
.............................. CYCLE    9 ..............................
........................................................................

 iter      E             dE          RMSdq      gap      omega  full diag
   1    -28.4951736 -0.284952E+02  0.333E-01    0.90       0.0  T
   2    -28.4936421  0.153149E-02  0.449E-01    0.90       1.0  T
   3    -28.4959558 -0.231369E-02  0.122E-01    0.91       1.0  T
   4    -28.4958463  0.109498E-03  0.105E-01    0.90       1.0  T
   5    -28.4960295 -0.183218E-03  0.237E-02    0.91       1.0  T
   6    -28.4960354 -0.593798E-05  0.913E-03    0.91       2.6  T
   7    -28.4960358 -0.321238E-06  0.503E-03    0.91       4.7  T
   8    -28.4960360 -0.202912E-06  0.160E-03    0.91      14.7  T
   9    -28.4960360 -0.137891E-07  0.636E-04    0.91      37.1  T
  10    -28.4960360 -0.124700E-08  0.183E-04    0.91     128.6  T
     SCC iter.                  ...        0 min,  1.281 sec
     gradient                   ...        0 min,  0.179 sec
 * total energy  :   -28.2203864 Eh     change       -0.1253026E-01 Eh
   gradient norm :     0.0845078 Eh/α   predicted    -0.8010822E-02 ( -36.07%)
   displ. norm   :     0.4044378 α      lambda       -0.2358471E-01
   maximum displ.:     0.1594984 α      in ANC's #1, #28, #16, ...

........................................................................
.............................. CYCLE   10 ..............................
........................................................................

 iter      E             dE          RMSdq      gap      omega  full diag
   1    -28.5292709 -0.285293E+02  0.492E-01    0.89       0.0  T
   2    -28.5291592  0.111622E-03  0.346E-01    0.89       1.0  T
   3    -28.5290772  0.820196E-04  0.288E-01    0.90       1.0  T
   4    -28.5295175 -0.440265E-03  0.128E-01    0.89       1.0  T
   5    -28.5297835 -0.266021E-03  0.520E-02    0.90       1.0  T
   6    -28.5298320 -0.484785E-04  0.127E-02    0.89       1.9  T
   7    -28.5298322 -0.214682E-06  0.619E-03    0.89       3.8  T
   8    -28.5298324 -0.244800E-06  0.345E-03    0.89       6.8  T
   9    -28.5298325 -0.409266E-07  0.148E-03    0.89      15.9  T
  10    -28.5298325 -0.804058E-08  0.486E-04    0.89      48.5  T
  11    -28.5298325 -0.124156E-08  0.182E-04    0.89     129.8  T
     SCC iter.                  ...        0 min,  1.228 sec
     gradient                   ...        0 min,  0.160 sec
 * total energy  :   -28.2344365 Eh     change       -0.1405014E-01 Eh
   gradient norm :     0.1456571 Eh/α   predicted    -0.1372123E-01 (  -2.34%)
   displ. norm   :     0.1394801 α      lambda       -0.6607393E-02
   maximum displ.:     0.0516961 α      in ANC's #28, #16, #9, ...

........................................................................
.............................. CYCLE   11 ..............................
........................................................................

 iter      E             dE          RMSdq      gap      omega  full diag
   1    -28.5441439 -0.285441E+02  0.261E-01    0.90       0.0  T
   2    -28.5431009  0.104295E-02  0.386E-01    0.89       1.0  T
   3    -28.5447869 -0.168594E-02  0.841E-02    0.88       1.0  T
   4    -28.5447059  0.809038E-04  0.876E-02    0.89       1.0  T
   5    -28.5448055 -0.995906E-04  0.189E-02    0.89       1.2  T
   6    -28.5448078 -0.230245E-05  0.626E-03    0.89       3.8  T
   7    -28.5448081 -0.265239E-06  0.324E-03    0.89       7.3  T
   8    -28.5448082 -0.959667E-07  0.107E-03    0.89      21.9  T
   9    -28.5448082 -0.320899E-08  0.356E-04    0.89      66.3  T
  10    -28.5448082  0.981260E-11  0.180E-04    0.89     131.0  T
     SCC iter.                  ...        0 min,  0.933 sec
     gradient                   ...        0 min,  0.175 sec
 * total energy  :   -28.2392683 Eh     change       -0.4831774E-02 Eh
   gradient norm :     0.0873695 Eh/α   predicted    -0.3367972E-02 ( -30.30%)
   displ. norm   :     0.1529359 α      lambda       -0.6248763E-02
   maximum displ.:     0.0578630 α      in ANC's #9, #16, #8, ...

........................................................................
.............................. CYCLE   12 ..............................
........................................................................

 iter      E             dE          RMSdq      gap      omega  full diag
   1    -28.5572327 -0.285572E+02  0.302E-01    0.89       0.0  T
   2    -28.5557408  0.149187E-02  0.460E-01    0.88       1.0  T
   3    -28.5581228 -0.238197E-02  0.950E-02    0.87       1.0  T
   4    -28.5580100  0.112771E-03  0.101E-01    0.88       1.0  T
   5    -28.5581422 -0.132208E-03  0.192E-02    0.88       1.2  T
   6    -28.5581449 -0.265955E-05  0.709E-03    0.88       3.3  T
   7    -28.5581453 -0.425299E-06  0.351E-03    0.88       6.7  T
   8    -28.5581454 -0.738576E-07  0.113E-03    0.88      20.8  T
   9    -28.5581454 -0.440954E-08  0.407E-04    0.88      58.0  T
  10    -28.5581454 -0.114618E-09  0.250E-04    0.88      94.4  T
     SCC iter.                  ...        0 min,  2.341 sec
     gradient                   ...        0 min,  0.196 sec
 * total energy  :   -28.2436211 Eh     change       -0.4352776E-02 Eh
   gradient norm :     0.0515306 Eh/α   predicted    -0.3197455E-02 ( -26.54%)
   displ. norm   :     0.1852544 α      lambda       -0.4392677E-02
   maximum displ.:     0.0750323 α      in ANC's #9, #16, #8, ...

........................................................................
.............................. CYCLE   13 ..............................
........................................................................

 iter      E             dE          RMSdq      gap      omega  full diag
   1    -28.5684629 -0.285685E+02  0.254E-01    0.86       0.0  T
   2    -28.5673905  0.107238E-02  0.377E-01    0.86       1.0  T
   3    -28.5690113 -0.162080E-02  0.921E-02    0.86       1.0  T
   4    -28.5689265  0.847734E-04  0.792E-02    0.86       1.0  T
   5    -28.5690206 -0.941253E-04  0.138E-02    0.86       1.7  T
   6    -28.5690219 -0.126885E-05  0.630E-03    0.86       3.7  T
   7    -28.5690222 -0.241064E-06  0.348E-03    0.86       6.8  T
   8    -28.5690223 -0.927899E-07  0.138E-03    0.86      17.1  T
   9    -28.5690223 -0.900846E-08  0.416E-04    0.86      56.7  T
  10    -28.5690223 -0.991530E-09  0.208E-04    0.86     113.2  T
     SCC iter.                  ...        0 min,  3.024 sec
     gradient                   ...        0 min,  0.148 sec
 * total energy  :   -28.2468441 Eh     change       -0.3223043E-02 Eh
   gradient norm :     0.0599220 Eh/α   predicted    -0.2271714E-02 ( -29.52%)
   displ. norm   :     0.2015719 α      lambda       -0.4085777E-02
   maximum displ.:     0.0752618 α      in ANC's #9, #8, #16, ...

........................................................................
.............................. CYCLE   14 ..............................
........................................................................

 iter      E             dE          RMSdq      gap      omega  full diag
   1    -28.5748638 -0.285749E+02  0.210E-01    0.84       0.0  T
   2    -28.5746036  0.260266E-03  0.214E-01    0.84       1.0  T
   3    -28.5749424 -0.338864E-03  0.103E-01    0.84       1.0  T
   4    -28.5749815 -0.390297E-04  0.433E-02    0.84       1.0  T
   5    -28.5750113 -0.298333E-04  0.120E-02    0.84       2.0  T
   6    -28.5750123 -0.102723E-05  0.604E-03    0.84       3.9  T
   7    -28.5750125 -0.224894E-06  0.270E-03    0.84       8.7  T
   8    -28.5750126 -0.588280E-07  0.121E-03    0.84      19.4  T
   9    -28.5750126 -0.716896E-08  0.433E-04    0.84      54.5  T
  10    -28.5750126 -0.107950E-08  0.148E-04    0.84     159.7  T
     SCC iter.                  ...        0 min,  1.039 sec
     gradient                   ...        0 min,  0.105 sec
 * total energy  :   -28.2497121 Eh     change       -0.2867950E-02 Eh
   gradient norm :     0.0508414 Eh/α   predicted    -0.2125898E-02 ( -25.87%)
   displ. norm   :     0.1759699 α      lambda       -0.2822924E-02
   maximum displ.:     0.0886754 α      in ANC's #1, #8, #16, ...

........................................................................
.............................. CYCLE   15 ..............................
........................................................................

 iter      E             dE          RMSdq      gap      omega  full diag
   1    -28.5751596 -0.285752E+02  0.158E-01    0.82       0.0  T
   2    -28.5751726 -0.130230E-04  0.103E-01    0.83       1.0  T
   3    -28.5751399  0.327793E-04  0.891E-02    0.83       1.0  T
   4    -28.5751765 -0.366890E-04  0.421E-02    0.82       1.0  T
   5    -28.5752045 -0.279595E-04  0.156E-02    0.83       1.5  T
   6    -28.5752076 -0.306030E-05  0.644E-03    0.83       3.7  T
   7    -28.5752079 -0.313733E-06  0.302E-03    0.83       7.8  T
   8    -28.5752079 -0.559124E-07  0.126E-03    0.83      18.7  T
   9    -28.5752079 -0.585145E-08  0.543E-04    0.83      43.4  T
  10    -28.5752079 -0.186541E-08  0.143E-04    0.83     164.9  T
     SCC iter.                  ...        0 min,  0.932 sec
     gradient                   ...        0 min,  0.120 sec
 * total energy  :   -28.2517168 Eh     change       -0.2004772E-02 Eh
   gradient norm :     0.0421472 Eh/α   predicted    -0.1455169E-02 ( -27.41%)
   displ. norm   :     0.1451025 α      lambda       -0.2247424E-02
   maximum displ.:     0.0818498 α      in ANC's #1, #8, #5, ...

........................................................................
.............................. CYCLE   16 ..............................
........................................................................

 iter      E             dE          RMSdq      gap      omega  full diag
   1    -28.5711510 -0.285712E+02  0.164E-01    0.81       0.0  T
   2    -28.5709137  0.237330E-03  0.186E-01    0.82       1.0  T
   3    -28.5712630 -0.349366E-03  0.734E-02    0.82       1.0  T
   4    -28.5712697 -0.671035E-05  0.424E-02    0.81       1.0  T
   5    -28.5713022 -0.324397E-04  0.125E-02    0.82       1.9  T
   6    -28.5713034 -0.122043E-05  0.551E-03    0.82       4.3  T
   7    -28.5713036 -0.149873E-06  0.293E-03    0.82       8.1  T
   8    -28.5713036 -0.565794E-07  0.911E-04    0.82      25.9  T
   9    -28.5713036 -0.356810E-08  0.340E-04    0.82      69.3  T
     SCC iter.                  ...        0 min,  0.804 sec
     gradient                   ...        0 min,  0.155 sec
 * total energy  :   -28.2533376 Eh     change       -0.1620787E-02 Eh
   gradient norm :     0.0545128 Eh/α   predicted    -0.1147376E-02 ( -29.21%)
   displ. norm   :     0.1425895 α      lambda       -0.2128493E-02
   maximum displ.:     0.0701371 α      in ANC's #1, #5, #8, ...

........................................................................
.............................. CYCLE   17 ..............................
........................................................................

 iter      E             dE          RMSdq      gap      omega  full diag
   1    -28.5657514 -0.285658E+02  0.139E-01    0.79       0.0  T
   2    -28.5656497  0.101638E-03  0.136E-01    0.80       1.0  T
   3    -28.5657978 -0.148105E-03  0.730E-02    0.80       1.0  T
   4    -28.5658177 -0.198478E-04  0.353E-02    0.79       1.0  T
   5    -28.5658403 -0.225976E-04  0.135E-02    0.80       1.7  T
   6    -28.5658426 -0.229631E-05  0.472E-03    0.80       5.0  T
   7    -28.5658426 -0.366619E-07  0.239E-03    0.80       9.9  T
   8    -28.5658427 -0.448844E-07  0.669E-04    0.80      35.2  T
   9    -28.5658427 -0.162346E-08  0.257E-04    0.80      91.6  T
     SCC iter.                  ...        0 min,  0.979 sec
     gradient                   ...        0 min,  0.138 sec
 * total energy  :   -28.2549159 Eh     change       -0.1578241E-02 Eh
   gradient norm :     0.0572986 Eh/α   predicted    -0.1085886E-02 ( -31.20%)
   displ. norm   :     0.1585515 α      lambda       -0.2244214E-02
   maximum displ.:     0.0645035 α      in ANC's #5, #1, #8, ...

........................................................................
.............................. CYCLE   18 ..............................
........................................................................

 iter      E             dE          RMSdq      gap      omega  full diag
   1    -28.5610646 -0.285611E+02  0.119E-01    0.77       0.0  T
   2    -28.5610823 -0.176447E-04  0.768E-02    0.78       1.0  T
   3    -28.5610759  0.633820E-05  0.489E-02    0.77       1.0  T
   4    -28.5610907 -0.147531E-04  0.236E-02    0.77       1.0  T
   5    -28.5610929 -0.223002E-05  0.136E-02    0.77       1.7  T
   6    -28.5610962 -0.329479E-05  0.469E-03    0.77       5.0  T
   7    -28.5610963 -0.111973E-06  0.132E-03    0.77      17.8  T
   8    -28.5610963 -0.100556E-07  0.550E-04    0.77      42.8  T
   9    -28.5610963 -0.127547E-08  0.198E-04    0.77     119.0  T
     SCC iter.                  ...        0 min,  0.842 sec
     gradient                   ...        0 min,  0.149 sec
 * total energy  :   -28.2565321 Eh     change       -0.1616238E-02 Eh
   gradient norm :     0.0428325 Eh/α   predicted    -0.1150316E-02 ( -28.83%)
   displ. norm   :     0.1556510 α      lambda       -0.1739733E-02
   maximum displ.:     0.0687972 α      in ANC's #5, #10, #8, ...

........................................................................
.............................. CYCLE   19 ..............................
........................................................................

 iter      E             dE          RMSdq      gap      omega  full diag
   1    -28.5601560 -0.285602E+02  0.111E-01    0.74       0.0  T
   2    -28.5600440  0.112012E-03  0.127E-01    0.75       1.0  T
   3    -28.5602079 -0.163902E-03  0.545E-02    0.74       1.0  T
   4    -28.5602053  0.257460E-05  0.302E-02    0.74       1.0  T
   5    -28.5602168 -0.115403E-04  0.926E-03    0.74       2.5  T
   6    -28.5602180 -0.113644E-05  0.344E-03    0.74       6.8  T
   7    -28.5602180 -0.383047E-07  0.143E-03    0.74      16.5  T
   8    -28.5602180 -0.939215E-08  0.628E-04    0.74      37.5  T
   9    -28.5602180 -0.229632E-08  0.145E-04    0.74     162.5  T
     SCC iter.                  ...        0 min,  0.942 sec
     gradient                   ...        0 min,  0.210 sec
 * total energy  :   -28.2577909 Eh     change       -0.1258830E-02 Eh
   gradient norm :     0.0288991 Eh/α   predicted    -0.8909415E-03 ( -29.22%)
   displ. norm   :     0.1572031 α      lambda       -0.1361736E-02
   maximum displ.:     0.0739983 α      in ANC's #5, #10, #7, ...

........................................................................
.............................. CYCLE   20 ..............................
........................................................................

 iter      E             dE          RMSdq      gap      omega  full diag
   1    -28.5625103 -0.285625E+02  0.127E-01    0.71       0.0  T
   2    -28.5622021  0.308210E-03  0.182E-01    0.72       1.0  T
   3    -28.5626294 -0.427297E-03  0.514E-02    0.71       1.0  T
   4    -28.5626221  0.724418E-05  0.296E-02    0.71       1.0  T
   5    -28.5626317 -0.957578E-05  0.118E-02    0.71       2.0  T
   6    -28.5626335 -0.177894E-05  0.360E-03    0.71       6.6  T
   7    -28.5626335 -0.719564E-07  0.133E-03    0.71      17.7  T
   8    -28.5626336 -0.602778E-08  0.500E-04    0.71      47.1  T
   9    -28.5626336 -0.840711E-09  0.127E-04    0.71     184.9  T
     SCC iter.                  ...        0 min,  0.884 sec
     gradient                   ...        0 min,  0.149 sec
 * total energy  :   -28.2588096 Eh     change       -0.1018669E-02 Eh
   gradient norm :     0.0278946 Eh/α   predicted    -0.6976967E-03 ( -31.51%)
   displ. norm   :     0.1948746 α      lambda       -0.1480310E-02
   maximum displ.:     0.0974147 α      in ANC's #5, #10, #7, ...
 * RMSD in coord.:     0.7456773 α      energy gain  -0.3448134E+01 Eh

generating ANC from exact Hessian ...
Using Lindh-Hessian (1995)
 Shifting diagonal of input Hessian by    8.1409446778294477E-003
 Lowest  eigenvalues of input Hessian
    0.000000    0.000000    0.000000    0.000000    0.000000    0.000000
    0.010000    0.011466    0.012685    0.015801    0.018500    0.020594
    0.023388    0.033907    0.034219    0.043848    0.047154    0.049376
 Highest eigenvalues
    1.874104    2.003947    2.126563    3.404752    3.981787    6.848004


........................................................................
.............................. CYCLE   21 ..............................
........................................................................

 iter      E             dE          RMSdq      gap      omega  full diag
   1    -28.5671250 -0.285671E+02  0.164E-01    0.67       0.0  T
   2    -28.5665286  0.596419E-03  0.244E-01    0.68       1.0  T
   3    -28.5673376 -0.809069E-03  0.611E-02    0.67       1.0  T
   4    -28.5673323  0.530214E-05  0.329E-02    0.67       1.0  T
   5    -28.5673422 -0.985654E-05  0.163E-02    0.67       1.4  T
   6    -28.5673450 -0.280835E-05  0.251E-03    0.67       9.4  T
   7    -28.5673450 -0.648258E-08  0.126E-03    0.67      18.6  T
   8    -28.5673450 -0.251858E-08  0.570E-04    0.67      41.4  T
   9    -28.5673450 -0.264395E-08  0.172E-04    0.67     137.4  T
     SCC iter.                  ...        0 min,  1.254 sec
     gradient                   ...        0 min,  0.157 sec
 * total energy  :   -28.2599561 Eh     change       -0.1146459E-02 Eh
   gradient norm :     0.0330846 Eh/α   predicted     0.0000000E+00 (-100.00%)
   displ. norm   :     0.5455117 α      lambda       -0.8710185E-02
   maximum displ.:     0.3433760 α      in ANC's #1, #2, #5, ...

........................................................................
.............................. CYCLE   22 ..............................
........................................................................

 iter      E             dE          RMSdq      gap      omega  full diag
   1    -28.5746924 -0.285747E+02  0.328E-01    0.68       0.0  T
   2    -28.5740586  0.633807E-03  0.264E-01    0.67       1.0  T
   3    -28.5744769 -0.418272E-03  0.222E-01    0.67       1.0  T
   4    -28.5749464 -0.469542E-03  0.453E-02    0.68       1.0  T
   5    -28.5749758 -0.293973E-04  0.253E-02    0.67       1.0  T
   6    -28.5749806 -0.474375E-05  0.828E-03    0.68       2.8  T
   7    -28.5749812 -0.634071E-06  0.271E-03    0.68       8.7  T
   8    -28.5749812 -0.348898E-07  0.171E-03    0.68      13.8  T
   9    -28.5749812 -0.743435E-08  0.579E-04    0.68      40.7  T
  10    -28.5749812 -0.136170E-08  0.340E-04    0.68      69.4  T
     SCC iter.                  ...        0 min,  1.202 sec
     gradient                   ...        0 min,  0.206 sec
 * total energy  :   -28.2668733 Eh     change       -0.6917261E-02 Eh
   gradient norm :     0.0224313 Eh/α   predicted    -0.5651098E-02 ( -18.30%)
   displ. norm   :     0.6905342 α      lambda       -0.7056770E-02
   maximum displ.:     0.4583800 α      in ANC's #1, #2, #5, ...

........................................................................
.............................. CYCLE   23 ..............................
........................................................................

 iter      E             dE          RMSdq      gap      omega  full diag
   1    -28.5759478 -0.285759E+02  0.440E-01    0.68       0.0  T
   2    -28.5728610  0.308676E-02  0.568E-01    0.68       1.0  T
   3    -28.5770474 -0.418634E-02  0.167E-01    0.68       1.0  T
   4    -28.5771928 -0.145366E-03  0.767E-02    0.68       1.0  T
   5    -28.5772790 -0.862405E-04  0.291E-02    0.68       1.0  T
   6    -28.5772844 -0.545656E-05  0.122E-02    0.68       1.9  T
   7    -28.5772856 -0.113312E-05  0.441E-03    0.68       5.3  T
   8    -28.5772857 -0.934718E-07  0.257E-03    0.68       9.2  T
   9    -28.5772857 -0.196400E-07  0.766E-04    0.68      30.8  T
  10    -28.5772857 -0.163712E-08  0.475E-04    0.68      49.7  T
     SCC iter.                  ...        0 min,  2.153 sec
     gradient                   ...        0 min,  0.215 sec
 * total energy  :   -28.2726278 Eh     change       -0.5754494E-02 Eh
   gradient norm :     0.0319199 Eh/α   predicted    -0.5210837E-02 (  -9.45%)
   displ. norm   :     0.6859734 α      lambda       -0.5476388E-02
   maximum displ.:     0.4866051 α      in ANC's #1, #2, #5, ...

........................................................................
.............................. CYCLE   24 ..............................
........................................................................

 iter      E             dE          RMSdq      gap      omega  full diag
   1    -28.5770221 -0.285770E+02  0.420E-01    0.67       0.0  T
   2    -28.5737546  0.326750E-02  0.571E-01    0.66       1.0  T
   3    -28.5782583 -0.450372E-02  0.142E-01    0.66       1.0  T
   4    -28.5783471 -0.887963E-04  0.724E-02    0.66       1.0  T
   5    -28.5784142 -0.671019E-04  0.298E-02    0.66       1.0  T
   6    -28.5784210 -0.687015E-05  0.111E-02    0.66       2.1  T
   7    -28.5784217 -0.642892E-06  0.489E-03    0.66       4.8  T
   8    -28.5784218 -0.992756E-07  0.296E-03    0.66       8.0  T
   9    -28.5784218 -0.390500E-07  0.777E-04    0.66      30.3  T
  10    -28.5784218 -0.333537E-08  0.305E-04    0.66      77.4  T
     SCC iter.                  ...        0 min,  1.190 sec
     gradient                   ...        0 min,  0.167 sec
 * total energy  :   -28.2771748 Eh     change       -0.4546998E-02 Eh
   gradient norm :     0.0479789 Eh/α   predicted    -0.4026669E-02 ( -11.44%)
   displ. norm   :     0.6761577 α      lambda       -0.5592434E-02
   maximum displ.:     0.5166804 α      in ANC's #1, #5, #2, ...

........................................................................
.............................. CYCLE   25 ..............................
........................................................................

 iter      E             dE          RMSdq      gap      omega  full diag
   1    -28.5836602 -0.285837E+02  0.293E-01    0.61       0.0  T
   2    -28.5830849  0.575255E-03  0.260E-01    0.61       1.0  T
   3    -28.5836103 -0.525411E-03  0.177E-01    0.62       1.0  T
   4    -28.5839131 -0.302793E-03  0.384E-02    0.62       1.0  T
   5    -28.5839230 -0.991199E-05  0.201E-02    0.61       1.2  T
   6    -28.5839257 -0.268315E-05  0.854E-03    0.62       2.8  T
   7    -28.5839265 -0.809986E-06  0.360E-03    0.62       6.5  T
   8    -28.5839265 -0.342048E-07  0.209E-03    0.62      11.3  T
   9    -28.5839266 -0.140357E-07  0.543E-04    0.62      43.4  T
  10    -28.5839266  0.612133E-10  0.341E-04    0.62      69.2  T
     SCC iter.                  ...        0 min,  1.104 sec
     gradient                   ...        0 min,  0.203 sec
 * total energy  :   -28.2818079 Eh     change       -0.4633126E-02 Eh
   gradient norm :     0.0325072 Eh/α   predicted    -0.4074645E-02 ( -12.05%)
   displ. norm   :     0.6859428 α      lambda       -0.4863562E-02
   maximum displ.:     0.5288322 α      in ANC's #1, #5, #2, ...

........................................................................
.............................. CYCLE   26 ..............................
........................................................................

 iter      E             dE          RMSdq      gap      omega  full diag
   1    -28.5910976 -0.285911E+02  0.332E-01    0.59       0.0  T
   2    -28.5902717  0.825814E-03  0.313E-01    0.56       1.0  T
   3    -28.5912555 -0.983806E-03  0.175E-01    0.59       1.0  T
   4    -28.5915006 -0.245055E-03  0.635E-02    0.58       1.0  T
   5    -28.5915495 -0.489435E-04  0.257E-02    0.58       1.0  T
   6    -28.5915508 -0.128941E-05  0.129E-02    0.58       1.8  T
   7    -28.5915531 -0.224747E-05  0.408E-03    0.58       5.8  T
   8    -28.5915531 -0.397610E-07  0.200E-03    0.58      11.8  T
   9    -28.5915531 -0.102334E-07  0.509E-04    0.58      46.3  T
  10    -28.5915531 -0.482611E-09  0.339E-04    0.58      69.6  T
     SCC iter.                  ...        0 min,  1.170 sec
     gradient                   ...        0 min,  0.007 sec
 * total energy  :   -28.2856333 Eh     change       -0.3825354E-02 Eh
   gradient norm :     0.0379440 Eh/α   predicted    -0.3575936E-02 (  -6.52%)
   displ. norm   :     0.6705160 α      lambda       -0.4702767E-02
   maximum displ.:     0.4930772 α      in ANC's #1, #5, #10, ...

........................................................................
.............................. CYCLE   27 ..............................
........................................................................

 iter      E             dE          RMSdq      gap      omega  full diag
   1    -28.5964698 -0.285965E+02  0.521E-01    0.60       0.0  T
   2    -28.5932083  0.326151E-02  0.647E-01    0.50       1.0  T
   3    -28.5984949 -0.528656E-02  0.157E-01    0.55       1.0  T
   4    -28.5985091 -0.142047E-04  0.119E-01    0.55       1.0  T
   5    -28.5987131 -0.204012E-03  0.406E-02    0.54       1.0  T
   6    -28.5987241 -0.110681E-04  0.156E-02    0.55       1.5  T
   7    -28.5987251 -0.992481E-06  0.764E-03    0.55       3.1  T
   8    -28.5987256 -0.494974E-06  0.213E-03    0.55      11.1  T
   9    -28.5987256 -0.392738E-09  0.885E-04    0.55      26.6  T
  10    -28.5987256 -0.621790E-08  0.279E-04    0.55      84.5  T
     SCC iter.                  ...        0 min,  3.476 sec
     gradient                   ...        0 min,  0.139 sec
 * total energy  :   -28.2883890 Eh     change       -0.2755744E-02 Eh
   gradient norm :     0.0796836 Eh/α   predicted    -0.3408523E-02 (  23.69%)
   displ. norm   :     0.6146002 α      lambda       -0.3506296E-02
   maximum displ.:     0.4883399 α      in ANC's #1, #2, #5, ...

........................................................................
.............................. CYCLE   28 ..............................
........................................................................

 iter      E             dE          RMSdq      gap      omega  full diag
   1    -28.5949422 -0.285949E+02  0.256E-01    0.57       0.0  T
   2    -28.5948915  0.507102E-04  0.172E-01    0.54       1.0  T
   3    -28.5949319 -0.404482E-04  0.146E-01    0.57       1.0  T
   4    -28.5951219 -0.189969E-03  0.559E-02    0.56       1.0  T
   5    -28.5951580 -0.361035E-04  0.167E-02    0.56       1.4  T
   6    -28.5951581 -0.469555E-07  0.108E-02    0.56       2.2  T
   7    -28.5951594 -0.137089E-05  0.419E-03    0.56       5.6  T
   8    -28.5951595 -0.486799E-07  0.184E-03    0.56      12.8  T
   9    -28.5951595 -0.936373E-08  0.558E-04    0.56      42.3  T
  10    -28.5951595 -0.134697E-08  0.294E-04    0.56      80.1  T
     SCC iter.                  ...        0 min,  1.260 sec
     gradient                   ...        0 min,  0.159 sec
 * total energy  :   -28.2906732 Eh     change       -0.2284204E-02 Eh
   gradient norm :     0.0246948 Eh/α   predicted    -0.2415355E-02 (   5.74%)
   displ. norm   :     0.4390836 α      lambda       -0.2506566E-02
   maximum displ.:     0.3246518 α      in ANC's #1, #11, #10, ...

........................................................................
.............................. CYCLE   29 ..............................
........................................................................

 iter      E             dE          RMSdq      gap      omega  full diag
   1    -28.6069228 -0.286069E+02  0.250E-01    0.59       0.0  T
   2    -28.6069905 -0.676530E-04  0.134E-01    0.56       1.0  T
   3    -28.6070014 -0.108676E-04  0.950E-02    0.59       1.0  T
   4    -28.6070487 -0.473597E-04  0.379E-02    0.57       1.0  T
   5    -28.6070598 -0.110654E-04  0.177E-02    0.57       1.3  T
   6    -28.6070619 -0.211704E-05  0.889E-03    0.57       2.7  T
   7    -28.6070632 -0.124869E-05  0.303E-03    0.57       7.8  T
   8    -28.6070632 -0.356451E-07  0.152E-03    0.57      15.5  T
   9    -28.6070632 -0.612700E-08  0.452E-04    0.57      52.1  T
  10    -28.6070632 -0.443141E-09  0.265E-04    0.57      88.9  T
     SCC iter.                  ...        0 min,  2.318 sec
     gradient                   ...        0 min,  0.180 sec
 * total energy  :   -28.2919252 Eh     change       -0.1251943E-02 Eh
   gradient norm :     0.0378118 Eh/α   predicted    -0.1494900E-02 (  19.41%)
   displ. norm   :     0.5374945 α      lambda       -0.2741815E-02
   maximum displ.:     0.4088976 α      in ANC's #1, #11, #5, ...

........................................................................
.............................. CYCLE   30 ..............................
........................................................................

 iter      E             dE          RMSdq      gap      omega  full diag
   1    -28.5960875 -0.285961E+02  0.393E-01    0.69       0.0  T
   2    -28.5955897  0.497777E-03  0.404E-01    0.57       1.0  T
   3    -28.5975314 -0.194172E-02  0.118E-01    0.63       1.0  T
   4    -28.5974967  0.347578E-04  0.995E-02    0.62       1.0  T
   5    -28.5976202 -0.123549E-03  0.247E-02    0.62       1.0  T
   6    -28.5976242 -0.395675E-05  0.107E-02    0.62       2.2  T
   7    -28.5976244 -0.202473E-06  0.414E-03    0.62       5.7  T
   8    -28.5976245 -0.142408E-06  0.182E-03    0.62      13.0  T
   9    -28.5976245  0.568178E-09  0.849E-04    0.62      27.7  T
  10    -28.5976245 -0.730880E-08  0.409E-04    0.62      57.7  T
     SCC iter.                  ...        0 min,  2.309 sec
     gradient                   ...        0 min,  0.194 sec
 * total energy  :   -28.2931356 Eh     change       -0.1210378E-02 Eh
   gradient norm :     0.0390447 Eh/α   predicted    -0.1766972E-02 (  45.99%)
   displ. norm   :     0.3153587 α      lambda       -0.3212644E-02
   maximum displ.:     0.2041750 α      in ANC's #3, #1, #6, ...

........................................................................
.............................. CYCLE   31 ..............................
........................................................................

 iter      E             dE          RMSdq      gap      omega  full diag
   1    -28.6034347 -0.286034E+02  0.285E-01    0.60       0.0  T
   2    -28.6034585 -0.237335E-04  0.220E-01    0.65       1.0  T
   3    -28.6036650 -0.206525E-03  0.129E-01    0.62       1.0  T
   4    -28.6037295 -0.644651E-04  0.631E-02    0.64       1.0  T
   5    -28.6037926 -0.631523E-04  0.137E-02    0.64       1.7  T
   6    -28.6037940 -0.138682E-05  0.573E-03    0.63       4.1  T
   7    -28.6037942 -0.236767E-06  0.222E-03    0.63      10.6  T
   8    -28.6037943 -0.361927E-07  0.733E-04    0.63      32.2  T
   9    -28.6037943 -0.446576E-09  0.369E-04    0.63      63.9  T
     SCC iter.                  ...        0 min,  1.177 sec
     gradient                   ...        0 min,  0.156 sec
 * total energy  :   -28.2931901 Eh     change       -0.5449136E-04 Eh
   gradient norm :     0.0632004 Eh/α   predicted    -0.1766075E-02 (3141.02%)
   displ. norm   :     0.2507726 α      lambda       -0.3188154E-02
   maximum displ.:     0.1505029 α      in ANC's #1, #3, #6, ...

........................................................................
.............................. CYCLE   32 ..............................
........................................................................

 iter      E             dE          RMSdq      gap      omega  full diag
   1    -28.6028620 -0.286029E+02  0.220E-01    0.72       0.0  T
   2    -28.6027977  0.642943E-04  0.190E-01    0.68       1.0  T
   3    -28.6031334 -0.335675E-03  0.885E-02    0.70       1.0  T
   4    -28.6031632 -0.298111E-04  0.458E-02    0.70       1.0  T
   5    -28.6031868 -0.235510E-04  0.106E-02    0.70       2.2  T
   6    -28.6031871 -0.338362E-06  0.570E-03    0.70       4.1  T
   7    -28.6031872 -0.125255E-06  0.264E-03    0.70       8.9  T
   8    -28.6031873 -0.440367E-07  0.133E-03    0.70      17.8  T
   9    -28.6031873 -0.548264E-08  0.350E-04    0.70      67.4  T
  10    -28.6031873 -0.140805E-09  0.131E-04    0.70     179.4  T
     SCC iter.                  ...        0 min,  4.149 sec
     gradient                   ...        0 min,  0.170 sec
 * total energy  :   -28.2944729 Eh     change       -0.1282888E-02 Eh
   gradient norm :     0.0382098 Eh/α   predicted    -0.1694322E-02 (  32.07%)
   displ. norm   :     0.2479427 α      lambda       -0.2267336E-02
   maximum displ.:     0.1635128 α      in ANC's #2, #1, #4, ...

........................................................................
.............................. CYCLE   33 ..............................
........................................................................

 iter      E             dE          RMSdq      gap      omega  full diag
   1    -28.6029515 -0.286030E+02  0.285E-01    0.63       0.0  T
   2    -28.6028478  0.103760E-03  0.268E-01    0.70       1.0  T
   3    -28.6036469 -0.799153E-03  0.100E-01    0.67       1.0  T
   4    -28.6036243  0.226041E-04  0.695E-02    0.67       1.0  T
   5    -28.6036914 -0.671239E-04  0.116E-02    0.67       2.0  T
   6    -28.6036918 -0.423255E-06  0.665E-03    0.67       3.5  T
   7    -28.6036921 -0.261483E-06  0.297E-03    0.67       7.9  T
   8    -28.6036921 -0.173161E-07  0.141E-03    0.67      16.8  T
   9    -28.6036921 -0.377145E-08  0.638E-04    0.67      36.9  T
  10    -28.6036921 -0.299515E-08  0.234E-04    0.67     100.5  T
     SCC iter.                  ...        0 min,  2.407 sec
     gradient                   ...        0 min,  0.213 sec
 * total energy  :   -28.2939366 Eh     change        0.5363933E-03 Eh
   gradient norm :     0.0429360 Eh/α   predicted    -0.1203360E-02 (-324.34%)
   displ. norm   :     0.1586013 α      lambda       -0.2625499E-02
   maximum displ.:     0.0766144 α      in ANC's #2, #6, #3, ...

........................................................................
.............................. CYCLE   34 ..............................
........................................................................

 iter      E             dE          RMSdq      gap      omega  full diag
   1    -28.6049273 -0.286049E+02  0.212E-01    0.73       0.0  T
   2    -28.6048422  0.851191E-04  0.211E-01    0.67       1.0  T
   3    -28.6053641 -0.521894E-03  0.717E-02    0.70       1.0  T
   4    -28.6053462  0.178790E-04  0.522E-02    0.70       1.0  T
   5    -28.6053846 -0.383730E-04  0.861E-03    0.70       2.7  T
   6    -28.6053851 -0.462872E-06  0.360E-03    0.70       6.5  T
   7    -28.6053851 -0.512270E-07  0.189E-03    0.70      12.5  T
   8    -28.6053851 -0.204124E-07  0.778E-04    0.70      30.3  T
   9    -28.6053851 -0.102067E-08  0.245E-04    0.70      96.2  T
     SCC iter.                  ...        0 min,  0.985 sec
     gradient                   ...        0 min,  0.204 sec
 * total energy  :   -28.2952249 Eh     change       -0.1288317E-02 Eh
   gradient norm :     0.0146998 Eh/α   predicted    -0.1345775E-02 (   4.46%)
   displ. norm   :     0.1862682 α      lambda       -0.7067838E-03
   maximum displ.:     0.1186354 α      in ANC's #1, #9, #7, ...

........................................................................
.............................. CYCLE   35 ..............................
........................................................................

 iter      E             dE          RMSdq      gap      omega  full diag
   1    -28.6017318 -0.286017E+02  0.152E-01    0.73       0.0  T
   2    -28.6017808 -0.489988E-04  0.816E-02    0.75       1.0  T
   3    -28.6017672  0.136834E-04  0.573E-02    0.74       1.0  T
   4    -28.6017856 -0.184160E-04  0.265E-02    0.75       1.0  T
   5    -28.6017964 -0.108340E-04  0.904E-03    0.75       2.6  T
   6    -28.6017973 -0.932907E-06  0.305E-03    0.75       7.7  T
   7    -28.6017974 -0.457778E-07  0.125E-03    0.75      18.9  T
   8    -28.6017974 -0.649070E-08  0.556E-04    0.75      42.4  T
   9    -28.6017974 -0.733095E-09  0.213E-04    0.75     110.6  T
     SCC iter.                  ...        0 min,  4.058 sec
     gradient                   ...        0 min,  0.214 sec
 * total energy  :   -28.2951246 Eh     change        0.1002538E-03 Eh
   gradient norm :     0.0317403 Eh/α   predicted    -0.3656503E-03 (-464.72%)
   displ. norm   :     0.0939876 α      lambda       -0.7409089E-03
   maximum displ.:     0.0484195 α      in ANC's #2, #9, #7, ...

........................................................................
.............................. CYCLE   36 ..............................
........................................................................

 iter      E             dE          RMSdq      gap      omega  full diag
   1    -28.6057877 -0.286058E+02  0.700E-02    0.72       0.0  T
   2    -28.6057919 -0.422105E-05  0.420E-02    0.72       1.0  T
   3    -28.6057876  0.431930E-05  0.290E-02    0.72       1.0  T
   4    -28.6057947 -0.703768E-05  0.111E-02    0.72       2.1  T
   5    -28.6057963 -0.166189E-05  0.389E-03    0.72       6.1  T
   6    -28.6057965 -0.208628E-06  0.119E-03    0.72      19.8  T
   7    -28.6057965 -0.573260E-08  0.340E-04    0.72      69.2  T
   8    -28.6057965 -0.718714E-10  0.152E-04    0.72     155.2  T
     SCC iter.                  ...        0 min,  0.891 sec
     gradient                   ...        0 min,  0.151 sec
 * total energy  :   -28.2955104 Eh     change       -0.3858292E-03 Eh
   gradient norm :     0.0102718 Eh/α   predicted    -0.3737250E-03 (  -3.14%)
   displ. norm   :     0.1283312 α      lambda       -0.1938698E-03
   maximum displ.:     0.0867148 α      in ANC's #1, #4, #6, ...

........................................................................
.............................. CYCLE   37 ..............................
........................................................................

 iter      E             dE          RMSdq      gap      omega  full diag
   1    -28.6041208 -0.286041E+02  0.633E-02    0.75       0.0  T
   2    -28.6041198  0.105681E-05  0.456E-02    0.74       1.0  T
   3    -28.6041236 -0.384383E-05  0.297E-02    0.74       1.0  T
   4    -28.6041305 -0.686652E-05  0.968E-03    0.74       2.4  T
   5    -28.6041323 -0.177979E-05  0.276E-03    0.74       8.5  T
   6    -28.6041323 -0.565685E-07  0.126E-03    0.74      18.7  T
   7    -28.6041323 -0.542164E-08  0.454E-04    0.74      52.0  T
   8    -28.6041323 -0.381124E-09  0.197E-04    0.74     119.5  T
     SCC iter.                  ...        0 min,  0.964 sec
     gradient                   ...        0 min,  0.171 sec
 * total energy  :   -28.2955580 Eh     change       -0.4752870E-04 Eh
   gradient norm :     0.0090278 Eh/α   predicted    -0.9853015E-04 ( 107.31%)
   displ. norm   :     0.0655482 α      lambda       -0.1268276E-03
   maximum displ.:     0.0376284 α      in ANC's #2, #6, #5, ...

........................................................................
.............................. CYCLE   38 ..............................
........................................................................

 iter      E             dE          RMSdq      gap      omega  full diag
   1    -28.6060670 -0.286061E+02  0.434E-02    0.73       0.0  T
   2    -28.6060685 -0.148125E-05  0.317E-02    0.74       1.0  T
   3    -28.6060749 -0.637387E-05  0.178E-02    0.73       1.3  T
   4    -28.6060751 -0.225256E-06  0.912E-03    0.74       2.6  T
   5    -28.6060768 -0.169138E-05  0.206E-03    0.74      11.4  T
   6    -28.6060768 -0.473869E-07  0.708E-04    0.74      33.3  T
   7    -28.6060768 -0.877947E-09  0.259E-04    0.74      91.0  T
     SCC iter.                  ...        0 min,  0.645 sec
     gradient                   ...        0 min,  0.201 sec
 * total energy  :   -28.2956380 Eh     change       -0.7997857E-04 Eh
   gradient norm :     0.0050054 Eh/α   predicted    -0.6368673E-04 ( -20.37%)
   displ. norm   :     0.1006058 α      lambda       -0.8807666E-04
   maximum displ.:     0.0609645 α      in ANC's #1, #6, #2, ...

........................................................................
.............................. CYCLE   39 ..............................
........................................................................

 iter      E             dE          RMSdq      gap      omega  full diag
   1    -28.6047582 -0.286048E+02  0.519E-02    0.74       0.0  T
   2    -28.6047664 -0.818199E-05  0.292E-02    0.75       1.0  T
   3    -28.6047677 -0.127592E-05  0.187E-02    0.74       1.3  T
   4    -28.6047685 -0.844335E-06  0.969E-03    0.75       2.4  T
   5    -28.6047696 -0.110992E-05  0.389E-03    0.74       6.1  T
   6    -28.6047699 -0.273282E-06  0.104E-03    0.74      22.7  T
   7    -28.6047699 -0.341301E-08  0.352E-04    0.74      67.0  T
   8    -28.6047699 -0.226265E-09  0.173E-04    0.74     136.4  T
     SCC iter.                  ...        0 min,  0.916 sec
     gradient                   ...        0 min,  0.156 sec
 * total energy  :   -28.2956762 Eh     change       -0.3827302E-04 Eh
   gradient norm :     0.0067484 Eh/α   predicted    -0.4448459E-04 (  16.23%)
   displ. norm   :     0.0575031 α      lambda       -0.5431124E-04
   maximum displ.:     0.0354986 α      in ANC's #2, #6, #4, ...

........................................................................
.............................. CYCLE   40 ..............................
........................................................................

 iter      E             dE          RMSdq      gap      omega  full diag
   1    -28.6054328 -0.286054E+02  0.257E-02    0.74       0.0  T
   2    -28.6054337 -0.911595E-06  0.150E-02    0.75       1.6  T
   3    -28.6054340 -0.300870E-06  0.104E-02    0.74       2.3  T
   4    -28.6054343 -0.296533E-06  0.396E-03    0.74       6.0  T
   5    -28.6054346 -0.320392E-06  0.140E-03    0.74      16.9  T
   6    -28.6054346 -0.230125E-07  0.472E-04    0.74      50.0  T
   7    -28.6054346 -0.682931E-09  0.146E-04    0.74     161.8  T
     SCC iter.                  ...        0 min,  0.892 sec
     gradient                   ...        0 min,  0.156 sec
 * total energy  :   -28.2957159 Eh     change       -0.3969556E-04 Eh
   gradient norm :     0.0054208 Eh/α   predicted    -0.2724567E-04 ( -31.36%)
   displ. norm   :     0.0981443 α      lambda       -0.7983536E-04
   maximum displ.:     0.0706245 α      in ANC's #2, #6, #4, ...

........................................................................
.............................. CYCLE   41 ..............................
........................................................................

 iter      E             dE          RMSdq      gap      omega  full diag
   1    -28.6055315 -0.286055E+02  0.361E-02    0.74       0.0  T
   2    -28.6055320 -0.499758E-06  0.210E-02    0.75       1.1  T
   3    -28.6055301  0.185912E-05  0.104E-02    0.74       2.3  T
   4    -28.6055322 -0.200856E-05  0.390E-03    0.74       6.0  T
   5    -28.6055323 -0.183864E-06  0.159E-03    0.75      14.8  T
   6    -28.6055324 -0.217743E-07  0.496E-04    0.75      47.5  T
   7    -28.6055324 -0.695206E-09  0.184E-04    0.75     128.0  T
     SCC iter.                  ...        0 min,  1.436 sec
     gradient                   ...        0 min,  0.169 sec
 * total energy  :   -28.2957728 Eh     change       -0.5692256E-04 Eh
   gradient norm :     0.0041161 Eh/α   predicted    -0.4030074E-04 ( -29.20%)
   displ. norm   :     0.1375545 α      lambda       -0.1010446E-03
   maximum displ.:     0.0996978 α      in ANC's #2, #6, #1, ...

........................................................................
.............................. CYCLE   42 ..............................
........................................................................

 iter      E             dE          RMSdq      gap      omega  full diag
   1    -28.6051827 -0.286052E+02  0.515E-02    0.74       0.0  T
   2    -28.6051854 -0.277253E-05  0.291E-02    0.75       1.0  T
   3    -28.6051849  0.580983E-06  0.195E-02    0.74       1.2  T
   4    -28.6051869 -0.201246E-05  0.540E-03    0.74       4.4  T
   5    -28.6051872 -0.374229E-06  0.284E-03    0.74       8.3  T
   6    -28.6051874 -0.118135E-06  0.970E-04    0.74      24.3  T
   7    -28.6051874 -0.364090E-08  0.349E-04    0.74      67.6  T
     SCC iter.                  ...        0 min,  0.905 sec
     gradient                   ...        0 min,  0.164 sec
 * total energy  :   -28.2958360 Eh     change       -0.6313488E-04 Eh
   gradient norm :     0.0051808 Eh/α   predicted    -0.5147712E-04 ( -18.46%)
   displ. norm   :     0.1320274 α      lambda       -0.7836273E-04
   maximum displ.:     0.0900568 α      in ANC's #2, #1, #6, ...
 * RMSD in coord.:     1.2962154 α      energy gain  -0.3702637E-01 Eh

generating ANC from exact Hessian ...
Using Lindh-Hessian (1995)
 Shifting diagonal of input Hessian by    7.4144516245128467E-003
 Lowest  eigenvalues of input Hessian
    0.000000    0.000000    0.000000    0.000000    0.000000    0.000000
    0.010000    0.012263    0.013142    0.016617    0.016820    0.019853
    0.022258    0.028452    0.033104    0.040047    0.045531    0.054268
 Highest eigenvalues
    1.955910    2.030939    2.285538    3.322001    3.604708    6.664519


........................................................................
.............................. CYCLE   43 ..............................
........................................................................

 iter      E             dE          RMSdq      gap      omega  full diag
   1    -28.6043617 -0.286044E+02  0.432E-02    0.74       0.0  T
   2    -28.6043636 -0.193897E-05  0.239E-02    0.74       1.0  T
   3    -28.6043631  0.458795E-06  0.159E-02    0.74       1.5  T
   4    -28.6043645 -0.135696E-05  0.466E-03    0.74       5.1  T
   5    -28.6043647 -0.240564E-06  0.246E-03    0.74       9.6  T
   6    -28.6043648 -0.828160E-07  0.943E-04    0.74      25.0  T
   7    -28.6043648 -0.515989E-08  0.334E-04    0.74      70.6  T
     SCC iter.                  ...        0 min,  0.777 sec
     gradient                   ...        0 min,  0.204 sec
 * total energy  :   -28.2958858 Eh     change       -0.4978118E-04 Eh
   gradient norm :     0.0062093 Eh/α   predicted     0.0000000E+00 (-100.00%)
   displ. norm   :     0.0440590 α      lambda       -0.9326761E-04
   maximum displ.:     0.0228503 α      in ANC's #2, #1, #7, ...

........................................................................
.............................. CYCLE   44 ..............................
........................................................................

 iter      E             dE          RMSdq      gap      omega  full diag
   1    -28.6052548 -0.286053E+02  0.300E-02    0.74       0.0  T
   2    -28.6052549 -0.623355E-07  0.184E-02    0.74       1.3  T
   3    -28.6052524  0.253702E-05  0.141E-02    0.74       1.7  T
   4    -28.6052553 -0.297559E-05  0.255E-03    0.74       9.2  T
   5    -28.6052554 -0.108284E-06  0.870E-04    0.74      27.1  T
   6    -28.6052554 -0.480458E-08  0.361E-04    0.74      65.2  T
     SCC iter.                  ...        0 min,  0.926 sec
     gradient                   ...        0 min,  0.195 sec
 * total energy  :   -28.2959504 Eh     change       -0.6459921E-04 Eh
   gradient norm :     0.0022573 Eh/α   predicted    -0.4672502E-04 ( -27.67%)
   displ. norm   :     0.0572749 α      lambda       -0.4144107E-04
   maximum displ.:     0.0346536 α      in ANC's #1, #2, #7, ...

........................................................................
.............................. CYCLE   45 ..............................
........................................................................

 iter      E             dE          RMSdq      gap      omega  full diag
   1    -28.6057066 -0.286057E+02  0.255E-02    0.73       0.0  T
   2    -28.6057069 -0.221797E-06  0.154E-02    0.74       1.5  T
   3    -28.6057060  0.827551E-06  0.104E-02    0.73       2.3  T
   4    -28.6057071 -0.105142E-05  0.263E-03    0.74       9.0  T
   5    -28.6057072 -0.128857E-06  0.837E-04    0.74      28.2  T
   6    -28.6057072 -0.494985E-08  0.350E-04    0.74      67.4  T
     SCC iter.                  ...        0 min,  0.713 sec
     gradient                   ...        0 min,  0.206 sec
 * total energy  :   -28.2959774 Eh     change       -0.2702566E-04 Eh
   gradient norm :     0.0011943 Eh/α   predicted    -0.2078898E-04 ( -23.08%)
   displ. norm   :     0.0767485 α      lambda       -0.1726518E-04
   maximum displ.:     0.0547216 α      in ANC's #1, #2, #7, ...

........................................................................
.............................. CYCLE   46 ..............................
........................................................................

 iter      E             dE          RMSdq      gap      omega  full diag
   1    -28.6057544 -0.286058E+02  0.271E-02    0.73       0.0  T
   2    -28.6057548 -0.356139E-06  0.162E-02    0.74       1.5  T
   3    -28.6057540  0.701547E-06  0.116E-02    0.73       2.0  T
   4    -28.6057552 -0.110154E-05  0.340E-03    0.74       6.9  T
   5    -28.6057554 -0.216281E-06  0.105E-03    0.74      22.5  T
   6    -28.6057554 -0.619837E-08  0.442E-04    0.74      53.3  T
   7    -28.6057554 -0.761183E-09  0.171E-04    0.74     137.8  T
     SCC iter.                  ...        0 min,  1.221 sec
     gradient                   ...        0 min,  0.192 sec
 * total energy  :   -28.2959957 Eh     change       -0.1828239E-04 Eh
   gradient norm :     0.0016232 Eh/α   predicted    -0.8655689E-05 ( -52.66%)
   displ. norm   :     0.0796315 α      lambda       -0.1654101E-04
   maximum displ.:     0.0595684 α      in ANC's #1, #2, #7, ...

........................................................................
.............................. CYCLE   47 ..............................
........................................................................

 iter      E             dE          RMSdq      gap      omega  full diag
   1    -28.6055808 -0.286056E+02  0.279E-02    0.74       0.0  T
   2    -28.6055814 -0.598213E-06  0.161E-02    0.74       1.5  T
   3    -28.6055809  0.494140E-06  0.114E-02    0.74       2.1  T
   4    -28.6055818 -0.924448E-06  0.341E-03    0.74       6.9  T
   5    -28.6055820 -0.188502E-06  0.139E-03    0.74      17.0  T
   6    -28.6055820 -0.216795E-07  0.495E-04    0.74      47.6  T
   7    -28.6055820 -0.933383E-09  0.182E-04    0.74     129.3  T
     SCC iter.                  ...        0 min,  1.789 sec
     gradient                   ...        0 min,  0.166 sec
 * total energy  :   -28.2960159 Eh     change       -0.2022307E-04 Eh
   gradient norm :     0.0012657 Eh/α   predicted    -0.8295684E-05 ( -58.98%)
   displ. norm   :     0.1157668 α      lambda       -0.2054299E-04
   maximum displ.:     0.0881935 α      in ANC's #1, #2, #7, ...

........................................................................
.............................. CYCLE   48 ..............................
........................................................................

 iter      E             dE          RMSdq      gap      omega  full diag
   1    -28.6053236 -0.286053E+02  0.441E-02    0.74       0.0  T
   2    -28.6053256 -0.203286E-05  0.257E-02    0.75       1.0  T
   3    -28.6053254  0.233342E-06  0.184E-02    0.74       1.3  T
   4    -28.6053274 -0.198497E-05  0.649E-03    0.74       3.6  T
   5    -28.6053281 -0.702164E-06  0.252E-03    0.74       9.4  T
   6    -28.6053282 -0.783063E-07  0.884E-04    0.74      26.7  T
   7    -28.6053282 -0.196672E-08  0.327E-04    0.74      72.1  T
     SCC iter.                  ...        0 min,  0.852 sec
     gradient                   ...        0 min,  0.220 sec
 * total energy  :   -28.2960383 Eh     change       -0.2238476E-04 Eh
   gradient norm :     0.0013437 Eh/α   predicted    -0.1033196E-04 ( -53.84%)
   displ. norm   :     0.1182260 α      lambda       -0.1591973E-04
   maximum displ.:     0.0873385 α      in ANC's #1, #2, #4, ...

........................................................................
.............................. CYCLE   49 ..............................
........................................................................

 iter      E             dE          RMSdq      gap      omega  full diag
   1    -28.6051243 -0.286051E+02  0.435E-02    0.74       0.0  T
   2    -28.6051275 -0.316164E-05  0.244E-02    0.75       1.0  T
   3    -28.6051278 -0.354317E-06  0.156E-02    0.74       1.5  T
   4    -28.6051289 -0.111826E-05  0.500E-03    0.75       4.7  T
   5    -28.6051292 -0.221322E-06  0.294E-03    0.75       8.0  T
   6    -28.6051293 -0.134442E-06  0.930E-04    0.75      25.3  T
   7    -28.6051293 -0.454251E-08  0.271E-04    0.75      87.1  T
     SCC iter.                  ...        0 min,  1.056 sec
     gradient                   ...        0 min,  0.146 sec
 * total energy  :   -28.2960508 Eh     change       -0.1254824E-04 Eh
   gradient norm :     0.0020382 Eh/α   predicted    -0.8008380E-05 ( -36.18%)
   displ. norm   :     0.0461323 α      lambda       -0.1011718E-04
   maximum displ.:     0.0370478 α      in ANC's #1, #5, #2, ...

........................................................................
.............................. CYCLE   50 ..............................
........................................................................

 iter      E             dE          RMSdq      gap      omega  full diag
   1    -28.6052294 -0.286052E+02  0.205E-02    0.75       0.0  T
   2    -28.6052299 -0.490832E-06  0.124E-02    0.75       1.9  T
   3    -28.6052303 -0.448840E-06  0.829E-03    0.75       2.8  T
   4    -28.6052307 -0.325261E-06  0.350E-03    0.75       6.7  T
   5    -28.6052309 -0.211865E-06  0.120E-03    0.75      19.7  T
   6    -28.6052309 -0.133425E-07  0.477E-04    0.75      49.4  T
   7    -28.6052309 -0.527709E-09  0.157E-04    0.75     150.6  T
     SCC iter.                  ...        0 min,  0.802 sec
     gradient                   ...        0 min,  0.162 sec
 * total energy  :   -28.2960584 Eh     change       -0.7541879E-05 Eh
   gradient norm :     0.0014715 Eh/α   predicted    -0.5070988E-05 ( -32.76%)
   displ. norm   :     0.0573301 α      lambda       -0.6079208E-05
[...]
 optimizer setup                ...        0 min,  0.001 sec (  0.001%)
 model hessian                  ...        0 min,  0.009 sec (  0.010%)
 ANC generation                 ...        0 min,  0.006 sec (  0.007%)
 coordinate transformation      ...        0 min,  0.001 sec (  0.001%)
 single point calculation       ...        1 min, 26.615 sec ( 99.026%)
 optimization log               ...        0 min,  0.005 sec (  0.006%)
 hessian update                 ...        0 min,  0.780 sec (  0.892%)
 rational function              ...        0 min,  0.025 sec (  0.029%)

================
 final structure:
================
18
 xtb: 6.7.1 (edcfbbe)
C           -2.48609837527003        0.51487049091731       -0.76936797742697
C           -1.33464005630025        0.00326646477589       -0.00694253335693
C           -0.77088090220474       -1.27145663737963        0.07776291322929
C            0.57428967026405       -1.26614181830774        0.32263240043593
N            1.17638061567420       -0.06253918323503        0.15119551153557
C            2.55718004248601        0.12382327719781       -0.19393588609944
N            0.29116642258457        0.96832550017243        0.04358514931018
S           -0.83485184805726        1.09379069466084        1.82327851578661
O            0.05574871765871        0.15615488763061        2.52355415665585
H           -2.57175708093816        1.59269715971714       -0.65638065382900
H           -3.39700163163736        0.05968882722352       -0.37960386342133
H           -2.40387875163201        0.27063479034011       -1.83092719049606
H           -1.34293039748573       -2.17416466080379       -0.03461347450926
H            1.19017410270886       -2.12648632451232        0.50962226216050
H            3.08119172566509       -0.82472551932892       -0.10718234117457
H            2.65325071498652        0.49307113291179       -1.22264493691020
H            3.02093218133536        0.84745767569069        0.48089317120329
H            0.54172585018371        1.60173324232375       -0.73092522309538

 Bond Distances (Angstroems)
 ---------------------------
C1-C2=1.4727         C1-H10=1.0871        C1-H11=1.0903        C1-H12=1.0924        C2-C1=1.4727         C2-C3=1.3964         
C2-N7=1.8913         C2-S8=2.1883         C3-C2=1.3964         C3-C4=1.3673         C3-H13=1.0746        C4-C3=1.3673         
C4-N5=1.3567         C4-H14=1.0745        N5-C4=1.3567         N5-C6=1.4354         N5-N7=1.3630         C6-N5=1.4354         
C6-H15=1.0871        C6-H16=1.0972        C6-H17=1.0928        N7-C2=1.8913         N7-N5=1.3630         N7-S8=2.1097         
N7-H18=1.0314        S8-C2=2.1883         S8-N7=2.1097         S8-O9=1.4706         O9-S8=1.4706         H10-C1=1.0871        
H11-C1=1.0903        H12-C1=1.0924        H13-C3=1.0746        H14-C4=1.0745        H15-C6=1.0871        H16-C6=1.0972        
H17-C6=1.0928        H18-N7=1.0314        
 C  H  Rav=1.0870 sigma=0.0078  Rmin=1.0745  Rmax=1.0972     8
 C  C  Rav=1.4121 sigma=0.0445  Rmin=1.3673  Rmax=1.4727     3
 N  H  Rav=1.0314 sigma=0.0000  Rmin=1.0314  Rmax=1.0314     1
 N  C  Rav=1.5611 sigma=0.2357  Rmin=1.3567  Rmax=1.8913     3
 N  N  Rav=1.3630 sigma=0.0000  Rmin=1.3630  Rmax=1.3630     1
 S  C  Rav=2.1883 sigma=0.0000  Rmin=2.1883  Rmax=2.1883     1
 S  N  Rav=2.1097 sigma=0.0000  Rmin=2.1097  Rmax=2.1097     1
 S  O  Rav=1.4706 sigma=0.0000  Rmin=1.4706  Rmax=1.4706     1

 selected bond angles (degree)
 --------------------
H10-C1-C2=110.62               H11-C1-C2=108.85               H11-C1-H10=108.11              H12-C1-C2=111.50               
H12-C1-H10=109.18              H12-C1-H11=108.48              C3-C2-C1=131.62                N7-C2-C1=120.58                
N7-C2-C3= 96.73                S8-C2-C1=116.00                S8-C2-C3=108.18                S8-C2-N7= 61.77                
C4-C3-C2=113.86                H13-C3-C2=123.06               H13-C3-C4=123.07               N5-C4-C3=114.67                
H14-C4-C3=126.30               H14-C4-N5=118.55               C6-N5-C4=124.92                N7-N5-C4=113.12                
N7-N5-C6=120.50                H15-C6-N5=109.34               H16-C6-N5=110.69               H16-C6-H15=109.04              
H17-C6-N5=110.23               H17-C6-H15=108.90              H17-C6-H16=108.60              N5-N7-C2=100.05                
S8-N7-C2= 66.05                S8-N7-N5=108.97                H18-N7-C2=120.14               H18-N7-N5=111.47               
H18-N7-S8=136.60               N7-S8-C2= 52.17                O9-S8-C2=102.64                O9-S8-N7= 92.32                

 selected dihedral angles (degree)
 ---------------------------------
C3-C2-C1-H10=185.33           C3-C2-C1-H11= 66.68           C3-C2-C1-H12=307.04           N7-C2-C1-H10=320.31           
N7-C2-C1-H11=201.66           N7-C2-C1-H12= 82.03           S8-C2-C1-H10= 31.47           S8-C2-C1-H11=272.82           
S8-C2-C1-H12=153.18           C4-C3-C2-C1=149.97            C4-C3-C2-N7=  7.79            C4-C3-C2-S8=305.34            
H13-C3-C2-C1=329.70           H13-C3-C2-N7=187.52           H13-C3-C2-S8=125.07           N5-C4-C3-C2=346.25            
N5-C4-C3-H13=166.52           H14-C4-C3-C2=174.33           H14-C4-C3-H13=354.60          C6-N5-C4-C3=206.83            
C6-N5-C4-H14= 19.42           N7-N5-C4-C3= 13.06            N7-N5-C4-H14=185.65           H15-C6-N5-C4=349.16           
H15-C6-N5-N7=183.88           H16-C6-N5-C4=109.31           H16-C6-N5-N7=304.03           H17-C6-N5-C4=229.48           
H17-C6-N5-N7= 64.20           C2-N7-N5-C4=353.27            C2-N7-N5-C6=160.18            S8-N7-N5-C4= 61.25            
S8-N7-N5-C6=228.16            H18-N7-N5-C4=225.13           H18-N7-N5-C6= 32.04           N7-S8-C2-C1=247.64            
N7-S8-C2-C3= 87.92            O9-S8-C2-C1=164.62            O9-S8-C2-C3=  4.90            O9-S8-C2-N7=276.98            
C2-S8-N7-N5=267.18            C2-S8-N7-H18=109.27           O9-S8-N7-C2=104.23            O9-S8-N7-N5= 11.41            
O9-S8-N7-H18=213.49           
           -------------------------------------------------
          |                Final Singlepoint                |
           -------------------------------------------------

          ...................................................
          :                      SETUP                      :
          :.................................................:
          :  # basis functions                  51          :
          :  # atomic orbitals                  50          :
          :  # shells                           28          :
          :  # electrons                        51          :
          :  max. iterations                   250          :
          :  Hamiltonian                  GFN2-xTB          :
          :  restarted?                      false          :
          :  GBSA solvation                  false          :
          :  PC potential                    false          :
          :  electronic temp.          300.0000000     K    :
          :  accuracy                    1.0000000          :
          :  -> integral cutoff          0.2500000E+02      :
          :  -> integral neglect         0.1000000E-07      :
          :  -> SCF convergence          0.1000000E-05 Eh   :
          :  -> wf. convergence          0.1000000E-03 e    :
          :  Broyden damping             0.4000000          :
          :  net charge                          0          :
          :  unpaired electrons                  0          :
          ...................................................

 iter      E             dE          RMSdq      gap      omega  full diag
   1    -28.6054134 -0.286054E+02  0.704E-05    0.75       0.0  T
   2    -28.6054134 -0.139977E-10  0.473E-05    0.75     497.8  T
   3    -28.6054134 -0.519407E-11  0.299E-05    0.75     788.0  T

   *** convergence criteria satisfied after 3 iterations ***

         #    Occupation            Energy/Eh            Energy/eV
      -------------------------------------------------------------
         1        2.0000           -0.7041540             -19.1610
       ...           ...                  ...                  ...
        20        2.0000           -0.4592427             -12.4966
        21        2.0000           -0.4553285             -12.3901
        22        2.0000           -0.4243590             -11.5474
        23        2.0000           -0.4125766             -11.2268
        24        2.0000           -0.3825178             -10.4088
        25        2.0000           -0.3323076              -9.0426
        26        1.0000           -0.2686656              -7.3108 (HOMO)
        27        0.0000           -0.2409963              -6.5578 (LUMO)
        28                         -0.2145327              -5.8377
        29                         -0.1626072              -4.4248
        30                         -0.1086108              -2.9555
        31                         -0.0090591              -0.2465
       ...                                ...                  ...
        50                          0.8695445              23.6615
      -------------------------------------------------------------
                  HL-Gap            0.0276693 Eh            0.7529 eV
             Fermi-level           -0.2776588 Eh           -7.5555 eV

 SCC (total)                   0 d,  0 h,  0 min,  0.614 sec
 SCC setup                      ...        0 min,  0.013 sec (  2.070%)
 Dispersion                     ...        0 min,  0.044 sec (  7.141%)
 classical contributions        ...        0 min,  0.033 sec (  5.453%)
 integral evaluation            ...        0 min,  0.046 sec (  7.427%)
 iterations                     ...        0 min,  0.332 sec ( 54.030%)
 molecular gradient             ...        0 min,  0.146 sec ( 23.806%)
 printout                       ...        0 min,  0.000 sec (  0.068%)

         :::::::::::::::::::::::::::::::::::::::::::::::::::::
         ::                     SUMMARY                     ::
         :::::::::::::::::::::::::::::::::::::::::::::::::::::
         :: total energy             -28.296066123857 Eh    ::
         :: gradient norm              0.000470386821 Eh/a0 ::
         :: HOMO-LUMO gap              0.752920086320 eV    ::
         ::.................................................::
         :: SCC energy               -28.605345240160 Eh    ::
         :: -> isotropic ES            0.039548192477 Eh    ::
         :: -> anisotropic ES          0.001582960363 Eh    ::
         :: -> anisotropic XC          0.013438840424 Eh    ::
         :: -> dispersion             -0.016161566180 Eh    ::
         :: repulsion energy           0.308185414852 Eh    ::
         :: add. restraining           0.001093701451 Eh    ::
         :: total charge               0.000000000000 e     ::
         :::::::::::::::::::::::::::::::::::::::::::::::::::::

           -------------------------------------------------
          |                Property Printout                |
           -------------------------------------------------

    * Orbital Energies and Occupations

         #    Occupation            Energy/Eh            Energy/eV
      -------------------------------------------------------------
         1        2.0000           -0.7041540             -19.1610
       ...           ...                  ...                  ...
        14        2.0000           -0.5042535             -13.7214
        15        2.0000           -0.4985634             -13.5666
        16        2.0000           -0.4927356             -13.4080
        17        2.0000           -0.4804373             -13.0734
        18        2.0000           -0.4679302             -12.7330
        19        2.0000           -0.4638398             -12.6217
        20        2.0000           -0.4592427             -12.4966
        21        2.0000           -0.4553285             -12.3901
        22        2.0000           -0.4243590             -11.5474
        23        2.0000           -0.4125766             -11.2268
        24        2.0000           -0.3825178             -10.4088
        25        2.0000           -0.3323076              -9.0426
        26        1.0000           -0.2686656              -7.3108 (HOMO)
        27        0.0000           -0.2409963              -6.5578 (LUMO)
        28                         -0.2145327              -5.8377
        29                         -0.1626072              -4.4248
        30                         -0.1086108              -2.9555
        31                         -0.0090591              -0.2465
        32                          0.0369411               1.0052
        33                          0.0588643               1.6018
        34                          0.0879735               2.3939
        35                          0.1036148               2.8195
        36                          0.1159565               3.1553
        37                          0.1314510               3.5770
       ...                                ...                  ...
        50                          0.8695445              23.6615
      -------------------------------------------------------------
                  HL-Gap            0.0276693 Eh            0.7529 eV
             Fermi-level           -0.2776588 Eh           -7.5555 eV

     #   Z          covCN         q      C6AA      α(0)
     1   6 C        3.753    -0.105    22.575     6.775
     2   6 C        3.330     0.017    25.310     7.983
     3   6 C        2.920    -0.066    29.652     8.930
     4   6 C        2.904     0.019    27.579     8.611
     5   7 N        2.830     0.055    20.278     6.688
     6   6 C        3.690    -0.054    21.743     6.673
     7   7 N        3.190    -0.198    25.296     7.470
     8  16 S        2.379     0.178   134.003    19.483
     9   8 O        0.859    -0.423    22.146     6.309
    10   1 H        0.925     0.062     2.176     2.307
    11   1 H        0.924     0.068     2.109     2.271
    12   1 H        0.924     0.050     2.325     2.385
    13   1 H        0.926     0.048     2.349     2.397
    14   1 H        0.926     0.045     2.384     2.414
    15   1 H        0.925     0.066     2.129     2.282
    16   1 H        0.924     0.046     2.368     2.407
    17   1 H        0.924     0.066     2.127     2.281
    18   1 H        0.859     0.128     1.563     1.959

 Mol. C6AA /au·bohr⁶  :       4099.092142
 Mol. C8AA /au·bohr⁸  :     107114.849267
 Mol. α(0) /au        :         99.624720


Wiberg/Mayer (AO) data.
largest (>0.10) Wiberg bond orders for each atom

 ---------------------------------------------------------------------------
     #   Z sym  total        # sym  WBO       # sym  WBO       # sym  WBO
 ---------------------------------------------------------------------------
     1   6 C    3.996 --     2 C    1.055    10 H    0.976    12 H    0.966
                            11 H    0.955
     2   6 C    3.912 --     3 C    1.324     1 C    1.055     8 S    0.680
                             7 N    0.627     9 O    0.109
     3   6 C    3.973 --     4 C    1.527     2 C    1.324    13 H    0.948
     4   6 C    3.961 --     3 C    1.527     5 N    1.216    14 H    0.965
     5   7 N    3.566 --     4 C    1.216     7 N    1.105     6 C    1.000
     6   6 C    3.972 --     5 N    1.000    15 H    0.978    17 H    0.976
                            16 H    0.970
     7   7 N    3.292 --     5 N    1.105    18 H    0.938     2 C    0.627
                             8 S    0.387
     8  16 S    3.170 --     9 O    1.853     2 C    0.680     7 N    0.387
     9   8 O    2.114 --     8 S    1.853     2 C    0.109
    10   1 H    0.996 --     1 C    0.976
    11   1 H    0.995 --     1 C    0.955
    12   1 H    0.998 --     1 C    0.966
    13   1 H    0.998 --     3 C    0.948
    14   1 H    0.998 --     4 C    0.965
    15   1 H    0.996 --     6 C    0.978
    16   1 H    0.998 --     6 C    0.970
    17   1 H    0.995 --     6 C    0.976
    18   1 H    0.983 --     7 N    0.938
 ---------------------------------------------------------------------------

Topologies differ in total number of bonds
Writing topology from bond orders to xtbtopo.mol

molecular dipole:
                 x           y           z       tot (Debye)
 q only:        0.139       0.147      -1.724
   full:        0.521      -0.058      -2.170       5.675
molecular quadrupole (traceless):
                xx          xy          yy          xz          yz          zz
 q only:       10.101      -1.546       2.261      -0.944      -0.320     -12.361
  q+dip:       10.186       0.388       3.254       0.491      -2.159     -13.440
   full:       10.119       0.337       2.687       0.148      -2.087     -12.805

           -------------------------------------------------
          |                Geometry Summary                 |
           -------------------------------------------------

      molecular mass/u    :      145.2027450
   center of mass at/Å    :       -0.1520739       0.1875134       0.6247748
  moments of inertia/u·Å² :        0.2650539E+03   0.3686864E+03   0.4683085E+03
rotational constants/cm⁻¹ :        0.6360078E-01   0.4572350E-01   0.3599685E-01

 * 15 selected distances

     #   Z          #   Z                                           value/Å
     1   6 C        2   6 C                                       1.4727145 (max)
     2   6 C        3   6 C                                       1.3963949
     3   6 C        4   6 C                                       1.3672869
     4   6 C        5   7 N                                       1.3566738
     5   7 N        6   6 C                                       1.4354282
     5   7 N        7   7 N                                       1.3630358
     1   6 C       10   1 H                                       1.0871127
     1   6 C       11   1 H                                       1.0903446
     1   6 C       12   1 H                                       1.0923916
     3   6 C       13   1 H                                       1.0745934
     4   6 C       14   1 H                                       1.0744635
     6   6 C       15   1 H                                       1.0871336
     6   6 C       16   1 H                                       1.0971855
     6   6 C       17   1 H                                       1.0927522
     7   7 N       18   1 H                                       1.0314320 (min)

 * 5 distinct bonds (by element types)

   Z      Z             #   av. dist./Å        max./Å        min./Å
   1 H    6 C           8     1.0869971     1.0971855     1.0744635
   6 C    6 C           3     1.4121321     1.4727145     1.3672869
   1 H    7 N           1     1.0314320     1.0314320     1.0314320
   6 C    7 N           2     1.3960510     1.4354282     1.3566738
   7 N    7 N           1     1.3630358     1.3630358     1.3630358


optimized geometry written to: xtbopt.xyz


           -------------------------------------------------
          | TOTAL ENERGY              -28.296066123857 Eh   |
          | GRADIENT NORM               0.000470386821 Eh/α |
          | HOMO-LUMO GAP               0.752920086320 eV   |
           -------------------------------------------------

------------------------------------------------------------------------
 * finished run on 2026/01/15 at 09:48:58.629     
------------------------------------------------------------------------
 total:
 * wall-time:     0 d,  0 h,  1 min, 29.646 sec
 *  cpu-time:     0 d,  0 h,  5 min, 34.658 sec
 * ratio c/w:     3.733 speedup
 SCF:
 * wall-time:     0 d,  0 h,  0 min,  1.374 sec
 *  cpu-time:     0 d,  0 h,  0 min,  7.063 sec
 * ratio c/w:     5.139 speedup
 ANC optimizer:
 * wall-time:     0 d,  0 h,  1 min, 28.098 sec
 *  cpu-time:     0 d,  0 h,  5 min, 27.034 sec
 * ratio c/w:     3.712 speedup

