      -----------------------------------------------------------      
     |                   =====================                   |     
     |                           x T B                           |     
     |                   =====================                   |     
     |                         S. Grimme                         |     
     |          Mulliken Center for Theoretical Chemistry        |     
     |                    University of Bonn                     |     
      -----------------------------------------------------------      

   * xtb version 6.7.1 (edcfbbe) compiled by 'conda@c0858423619e' on 2025-09-04

   xtb is free software: you can redistribute it and/or modify it under
   the terms of the GNU Lesser General Public License as published by
   the Free Software Foundation, either version 3 of the License, or
   (at your option) any later version.
   
   xtb is distributed in the hope that it will be useful,
   but WITHOUT ANY WARRANTY; without even the implied warranty of
   MERCHANTABILITY or FITNESS FOR A PARTICULAR PURPOSE.  See the
   GNU Lesser General Public License for more details.
   
   Cite this work as:
   * C. Bannwarth, E. Caldeweyher, S. Ehlert, A. Hansen, P. Pracht,
     J. Seibert, S. Spicher, S. Grimme, WIREs Comput. Mol. Sci., 2020, 11,
     e01493. DOI: 10.1002/wcms.1493
   
   for GFN2-xTB:
   * C. Bannwarth, S. Ehlert and S. Grimme., J. Chem. Theory Comput., 2019,
     15, 1652-1671. DOI: 10.1021/acs.jctc.8b01176
   for GFN1-xTB:
   * S. Grimme, C. Bannwarth, P. Shushkov, J. Chem. Theory Comput., 2017,
     13, 1989-2009. DOI: 10.1021/acs.jctc.7b00118
   for GFN0-xTB:
   * P. Pracht, E. Caldeweyher, S. Ehlert, S. Grimme, ChemRxiv, 2019, preprint.
     DOI: 10.26434/chemrxiv.8326202.v1
   for GFN-FF:
   * S. Spicher and S. Grimme, Angew. Chem. Int. Ed., 2020, 59, 15665-15673.
     DOI: 10.1002/anie.202004239
   
   for ALPB and GBSA implicit solvation:
   * S. Ehlert, M. Stahn, S. Spicher, S. Grimme, J. Chem. Theory Comput.,
     2021, 17, 4250-4261. DOI: 10.1021/acs.jctc.1c00471
   
   for ddCOSMO and CPCM-X implicit solvation:
   * M. Stahn, S. Ehlert, S. Grimme, J. Phys. Chem. A,
     2023, XX, XXXX-XXXX. DOI: 10.1021/acs.jpca.3c04382
   
   for DFT-D4:
   * E. Caldeweyher, C. Bannwarth and S. Grimme, J. Chem. Phys., 2017,
     147, 034112. DOI: 10.1063/1.4993215
   * E. Caldeweyher, S. Ehlert, A. Hansen, H. Neugebauer, S. Spicher,
     C. Bannwarth and S. Grimme, J. Chem. Phys., 2019, 150, 154122.
     DOI: 10.1063/1.5090222
   * E. Caldeweyher, J.-M. Mewes, S. Ehlert and S. Grimme, Phys. Chem. Chem. Phys.
     2020, 22, 8499-8512. DOI: 10.1039/D0CP00502A
   
   for sTDA-xTB:
   * S. Grimme and C. Bannwarth, J. Chem. Phys., 2016, 145, 054103.
     DOI: 10.1063/1.4959605
   
   in the mass-spec context:
   * V. Asgeirsson, C. Bauer and S. Grimme, Chem. Sci., 2017, 8, 4879.
     DOI: 10.1039/c7sc00601b
   * J. Koopman and S. Grimme, ACS Omega 2019, 4, 12, 15120-15133.
     DOI: 10.1021/acsomega.9b02011
   
   for metadynamics refer to:
   * S. Grimme, J. Chem. Theory Comput., 2019, 155, 2847-2862
     DOI: 10.1021/acs.jctc.9b00143
   
   for SPH calculations refer to:
   * S. Spicher and S. Grimme, J. Chem. Theory Comput., 2021, 17, 1701-1714
     DOI: 10.1021/acs.jctc.0c01306
   
   for ONIOM refer to:
   * C. Plett, A. Katbashev, S. Ehlert, S. Grimme, M. Bursch,
     Phys. Chem. Chem. Phys., 2023, 25, 17860-17868. DOI: 10.1039/D3CP02178E
   
   for DIPRO refer to:
   * J. Kohn, N. Gildemeister, S. Grimme, D. Fazzi, A. Hansen,
     J. Chem. Phys., 2023, just accepted.
   
   for PTB refer to:
   * S. Grimme, M. Mueller, A. Hansen, J. Chem. Phys., 2023, 158, 124111.
     DOI: 10.1063/5.0137838
   
   with help from (in alphabetical order)
   P. Atkinson, C. Bannwarth, F. Bohle, G. Brandenburg, E. Caldeweyher
   M. Checinski, S. Dohm, S. Ehlert, S. Ehrlich, I. Gerasimov, C. Hölzer
   A. Katbashev, J. Kohn, J. Koopman, C. Lavigne, S. Lehtola, F. März, M. Müller,
   F. Musil, H. Neugebauer, J. Pisarek, C. Plett, P. Pracht, F. Pultar,
   J. Seibert, P. Shushkov, S. Spicher, M. Stahn, M. Steiner, T. Strunk,
   J. Stückrath, T. Rose, and J. Unsleber
   
 * started run on 2026/01/15 at 09:08:04.843     
   ID    Z sym.   atoms
    1    6 C      1-4, 7
    2    7 N      5, 6
    3   16 S      8
    4    8 O      9
    5    1 H      10-17
constraining bond 8 2 to    2.3000000 Å, actual value:    1.7719113 Å
constraining bond 8 6 to    2.2000000 Å, actual value:    1.7486639 Å

           -------------------------------------------------
          |                Calculation Setup                |
           -------------------------------------------------

          program call               : /h/28/cicsy/miniforge3/envs/elagente/bin/xtb N5-Me_TDSO_pathwayA.xyz --opt --gfn 2 -P 4 --chrg 0 --input detailed_input.inp
          coordinate file            : N5-Me_TDSO_pathwayA.xyz
          omp threads                :                     4


           -------------------------------------------------
          |                 G F N 2 - x T B                 |
           -------------------------------------------------

        Reference                      10.1021/acs.jctc.8b01176
      * Hamiltonian:
        H0-scaling (s, p, d)           1.850000    2.230000    2.230000
        zeta-weighting                 0.500000
      * Dispersion:
        s8                             2.700000
        a1                             0.520000
        a2                             5.000000
        s9                             5.000000
      * Repulsion:
        kExp                           1.500000    1.000000
        rExp                           1.000000
      * Coulomb:
        alpha                          2.000000
        third order                    shell-resolved
        anisotropic                    true
        a3                             3.000000
        a5                             4.000000
        cn-shift                       1.200000
        cn-exp                         4.000000
        max-rad                        5.000000


          ...................................................
          :                      SETUP                      :
          :.................................................:
          :  # basis functions                  50          :
          :  # atomic orbitals                  49          :
          :  # shells                           27          :
          :  # electrons                        50          :
          :  max. iterations                   250          :
          :  Hamiltonian                  GFN2-xTB          :
          :  restarted?                      false          :
          :  GBSA solvation                  false          :
          :  PC potential                    false          :
          :  electronic temp.          300.0000000     K    :
          :  accuracy                    1.0000000          :
          :  -> integral cutoff          0.2500000E+02      :
          :  -> integral neglect         0.1000000E-07      :
          :  -> SCF convergence          0.1000000E-05 Eh   :
          :  -> wf. convergence          0.1000000E-03 e    :
          :  Broyden damping             0.4000000          :
          :  net charge                          0          :
          :  unpaired electrons                  0          :
          ...................................................

 iter      E             dE          RMSdq      gap      omega  full diag
   1    -28.0823491 -0.280823E+02  0.478E+00    2.66       0.0  T
   2    -28.1294836 -0.471345E-01  0.364E+00    2.79       1.0  T
   3    -28.1405340 -0.110504E-01  0.170E+00    2.57       1.0  T
   4    -28.1435247 -0.299070E-02  0.845E-01    2.65       1.0  T
   5    -28.1493927 -0.586805E-02  0.284E-01    2.58       1.0  T
   6    -28.1494215 -0.287183E-04  0.549E-02    2.58       1.0  T
   7    -28.1494272 -0.575452E-05  0.404E-02    2.58       1.0  T
   8    -28.1494368 -0.957897E-05  0.218E-02    2.58       1.1  T
   9    -28.1494377 -0.964340E-06  0.512E-03    2.58       4.7  T
  10    -28.1494379 -0.101127E-06  0.267E-03    2.58       9.1  T
  11    -28.1494379 -0.625744E-08  0.935E-04    2.58      25.9  T
  12    -28.1494379 -0.346486E-08  0.301E-04    2.58      80.5  T

   *** convergence criteria satisfied after 12 iterations ***

         #    Occupation            Energy/Eh            Energy/eV
      -------------------------------------------------------------
         1        2.0000           -0.7574001             -20.6099
       ...           ...                  ...                  ...
        19        2.0000           -0.4738223             -12.8934
        20        2.0000           -0.4664371             -12.6924
        21        2.0000           -0.4377567             -11.9120
        22        2.0000           -0.4208184             -11.4511
        23        2.0000           -0.3913279             -10.6486
        24        2.0000           -0.3811233             -10.3709
        25        2.0000           -0.3727653             -10.1435 (HOMO)
        26                         -0.2780040              -7.5649 (LUMO)
        27                         -0.2186714              -5.9504
        28                         -0.1968834              -5.3575
        29                         -0.1524033              -4.1471
        30                         -0.0969106              -2.6371
       ...                                ...                  ...
        49                          0.7694043              20.9366
      -------------------------------------------------------------
                  HL-Gap            0.0947614 Eh            2.5786 eV
             Fermi-level           -0.3253847 Eh           -8.8542 eV

 SCC (total)                   0 d,  0 h,  0 min,  1.370 sec
 SCC setup                      ...        0 min,  0.003 sec (  0.244%)
 Dispersion                     ...        0 min,  0.026 sec (  1.885%)
 classical contributions        ...        0 min,  0.013 sec (  0.953%)
 integral evaluation            ...        0 min,  0.035 sec (  2.544%)
 iterations                     ...        0 min,  1.152 sec ( 84.113%)
 molecular gradient             ...        0 min,  0.140 sec ( 10.246%)
 printout                       ...        0 min,  0.000 sec (  0.013%)

         :::::::::::::::::::::::::::::::::::::::::::::::::::::
         ::                     SUMMARY                     ::
         :::::::::::::::::::::::::::::::::::::::::::::::::::::
         :: total energy             -26.488544536444 Eh    ::
         :: gradient norm              2.862688982923 Eh/a0 ::
         :: HOMO-LUMO gap              2.578588002500 eV    ::
         ::.................................................::
         :: SCC energy               -28.149393808235 Eh    ::
         :: -> isotropic ES            0.051871955008 Eh    ::
         :: -> anisotropic ES          0.000617100840 Eh    ::
         :: -> anisotropic XC          0.018755562293 Eh    ::
         :: -> dispersion             -0.014954223343 Eh    ::
         :: repulsion energy           0.282184316622 Eh    ::
         :: add. restraining           1.378664955169 Eh    ::
         :: total charge               0.000000000000 e     ::
         :::::::::::::::::::::::::::::::::::::::::::::::::::::

      ----------------------------------------------------------- 
     |                   =====================                   |
     |                        A N C O P T                        |
     |                   =====================                   |
     |               Approximate Normal Coordinate               |
     |                Rational Function Optimizer                |
      ----------------------------------------------------------- 
      ----------------------------------------------------------- 
     |                   =====================                   |
     |                        A N C O P T                        |
     |                   =====================                   |
     |               Approximate Normal Coordinate               |
     |                Rational Function Optimizer                |
      ----------------------------------------------------------- 

          ...................................................
          :                      SETUP                      :
          :.................................................:
          :   optimization level            normal          :
          :   max. optcycles                   200          :
          :   ANC micro-cycles                  20          :
          :   degrees of freedom                45          :
          :.................................................:
          :   RF solver                   davidson          :
          :   write xtbopt.log                true          :
          :   linear?                        false          :
          :   energy convergence         0.5000000E-05 Eh   :
          :   grad. convergence          0.1000000E-02 Eh/α :
          :   maxmium RF displ.          1.0000000          :
          :   Hlow (freq-cutoff)         0.1000000E-01      :
          :   Hmax (freq-cutoff)         5.0000000          :
          :   S6 in model hess.         20.0000000          :
          ...................................................

generating ANC from exact Hessian ...
Using Lindh-Hessian (1995)
 Shifting diagonal of input Hessian by   0.85872769107779579     
 Lowest  eigenvalues of input Hessian
    0.010000    0.475246    0.543311    0.661637    0.000000    0.000000
    0.000000    0.000000    0.000000    0.864927    0.000000    0.867089
    0.868322    0.870776    0.872926    0.897764    0.905276    0.912291
 Highest eigenvalues
    2.180045    2.539976    2.584740    2.828865    4.814346    5.576153


........................................................................
.............................. CYCLE    1 ..............................
........................................................................

 iter      E             dE          RMSdq      gap      omega  full diag
   1    -28.1494379 -0.281494E+02  0.907E-05    2.58       0.0  T
   2    -28.1494379 -0.106333E-10  0.584E-05    2.58     415.6  T
   3    -28.1494379 -0.199307E-11  0.430E-05    2.58     564.2  T
     SCC iter.                  ...        0 min,  0.259 sec
     gradient                   ...        0 min,  0.158 sec
 * total energy  :   -26.4885445 Eh     change       -0.2249223E-09 Eh
   gradient norm :     2.8626879 Eh/α   predicted     0.0000000E+00 (-100.00%)
   displ. norm   :     0.5021048 α      lambda       -0.1387231E+01
   maximum displ.:     0.4514118 α      in ANC's #44, #2, #3, ...

........................................................................
.............................. CYCLE    2 ..............................
........................................................................

 iter      E             dE          RMSdq      gap      omega  full diag
   1    -28.1548006 -0.281548E+02  0.133E+00    2.55       0.0  T
   2    -28.1593449 -0.454433E-02  0.108E+00    2.43       1.0  T
   3    -28.1607317 -0.138683E-02  0.533E-01    2.48       1.0  T
   4    -28.1601149  0.616817E-03  0.295E-01    2.52       1.0  T
   5    -28.1611119 -0.996973E-03  0.893E-02    2.50       1.0  T
   6    -28.1611292 -0.173510E-04  0.320E-02    2.50       1.0  T
   7    -28.1611308 -0.156879E-05  0.118E-02    2.50       2.1  T
   8    -28.1611319 -0.107909E-05  0.539E-03    2.50       4.5  T
   9    -28.1611320 -0.151375E-06  0.209E-03    2.50      11.6  T
  10    -28.1611320 -0.564915E-08  0.622E-04    2.50      39.0  T
  11    -28.1611320 -0.249621E-09  0.315E-04    2.50      77.1  T
     SCC iter.                  ...        0 min,  1.143 sec
     gradient                   ...        0 min,  0.150 sec
 * total energy  :   -27.5207305 Eh     change       -0.1032186E+01 Eh
   gradient norm :     1.3392471 Eh/α   predicted    -0.8684830E+00 ( -15.86%)
   displ. norm   :     0.4399141 α      lambda       -0.5282856E+00
   maximum displ.:     0.3370576 α      in ANC's #44, #2, #3, ...

........................................................................
.............................. CYCLE    3 ..............................
........................................................................

 iter      E             dE          RMSdq      gap      omega  full diag
   1    -28.1336989 -0.281337E+02  0.128E+00    1.62       0.0  T
   2    -28.1345022 -0.803362E-03  0.826E-01    1.75       1.0  T
   3    -28.1388412 -0.433891E-02  0.591E-01    1.68       1.0  T
   4    -28.1412089 -0.236771E-02  0.218E-01    1.70       1.0  T
   5    -28.1413297 -0.120861E-03  0.142E-01    1.73       1.0  T
   6    -28.1414944 -0.164702E-03  0.380E-02    1.71       1.0  T
   7    -28.1414916  0.281868E-05  0.211E-02    1.71       1.1  T
   8    -28.1414950 -0.335643E-05  0.756E-03    1.71       3.2  T
   9    -28.1414957 -0.701999E-06  0.255E-03    1.71       9.5  T
  10    -28.1414957 -0.208531E-07  0.542E-04    1.71      44.8  T
  11    -28.1414957 -0.593189E-09  0.339E-04    1.71      71.5  T
     SCC iter.                  ...        0 min,  1.507 sec
     gradient                   ...        0 min,  0.178 sec
 * total energy  :   -27.7984688 Eh     change       -0.2777383E+00 Eh
   gradient norm :     0.1195535 Eh/α   predicted    -0.3152609E+00 (  13.51%)
   displ. norm   :     0.6872212 α      lambda       -0.2448431E-01
   maximum displ.:     0.6823933 α      in ANC's #1, #2, #30, ...

........................................................................
.............................. CYCLE    4 ..............................
........................................................................

 iter      E             dE          RMSdq      gap      omega  full diag
   1    -28.0772063 -0.280772E+02  0.220E+00    1.87       0.0  T
   2    -28.0643468  0.128595E-01  0.265E+00    1.46       1.0  T
   3    -28.1224367 -0.580899E-01  0.632E-01    1.65       1.0  T
   4    -28.1197046  0.273205E-02  0.506E-01    1.70       1.0  T
   5    -28.1222919 -0.258728E-02  0.217E-01    1.65       1.0  T
   6    -28.1230124 -0.720458E-03  0.633E-02    1.66       1.0  T
   7    -28.1230289 -0.165240E-04  0.407E-02    1.66       1.0  T
   8    -28.1230373 -0.839917E-05  0.113E-02    1.66       2.1  T
   9    -28.1230381 -0.794532E-06  0.325E-03    1.66       7.5  T
  10    -28.1230381 -0.245151E-07  0.154E-03    1.66      15.8  T
  11    -28.1230381 -0.598302E-08  0.510E-04    1.66      47.6  T
  12    -28.1230381 -0.111608E-08  0.198E-04    1.66     122.6  T
     SCC iter.                  ...        0 min,  2.020 sec
     gradient                   ...        0 min,  0.116 sec
 * total energy  :   -27.7755774 Eh     change        0.2289146E-01 Eh
   gradient norm :     0.4213058 Eh/α   predicted    -0.1802385E-01 (-178.74%)
   displ. norm   :     0.4092843 α      lambda       -0.7383282E-01
   maximum displ.:     0.3991775 α      in ANC's #1, #41, #2, ...

........................................................................
.............................. CYCLE    5 ..............................
........................................................................

 iter      E             dE          RMSdq      gap      omega  full diag
   1    -28.1142820 -0.281143E+02  0.160E+00    1.52       0.0  T
   2    -28.1140766  0.205321E-03  0.166E+00    1.92       1.0  T
   3    -28.1345282 -0.204515E-01  0.389E-01    1.72       1.0  T
   4    -28.1327967  0.173143E-02  0.379E-01    1.71       1.0  T
   5    -28.1345259 -0.172911E-02  0.144E-01    1.72       1.0  T
   6    -28.1346677 -0.141866E-03  0.470E-02    1.72       1.0  T
   7    -28.1346852 -0.174964E-04  0.250E-02    1.71       1.0  T
   8    -28.1346896 -0.440486E-05  0.600E-03    1.72       4.0  T
   9    -28.1346897 -0.781802E-07  0.210E-03    1.72      11.6  T
  10    -28.1346897 -0.189609E-07  0.955E-04    1.72      25.4  T
  11    -28.1346897 -0.184210E-08  0.263E-04    1.72      92.2  T
     SCC iter.                  ...        0 min,  2.089 sec
     gradient                   ...        0 min,  0.114 sec
 * total energy  :   -27.8088809 Eh     change       -0.3330356E-01 Eh
   gradient norm :     0.0733508 Eh/α   predicted    -0.4310042E-01 (  29.42%)
   displ. norm   :     0.0608498 α      lambda       -0.3643475E-02
   maximum displ.:     0.0252683 α      in ANC's #2, #3, #1, ...

........................................................................
.............................. CYCLE    6 ..............................
........................................................................

 iter      E             dE          RMSdq      gap      omega  full diag
   1    -28.1365010 -0.281365E+02  0.206E-01    1.67       0.0  T
   2    -28.1364830  0.179486E-04  0.221E-01    1.72       1.0  T
   3    -28.1368630 -0.379969E-03  0.549E-02    1.69       1.0  T
   4    -28.1368540  0.905477E-05  0.250E-02    1.69       1.0  T
   5    -28.1368639 -0.991340E-05  0.762E-03    1.69       3.2  T
   6    -28.1368642 -0.357406E-06  0.431E-03    1.69       5.6  T
   7    -28.1368644 -0.178839E-06  0.238E-03    1.69      10.2  T
   8    -28.1368645 -0.568292E-07  0.649E-04    1.69      37.4  T
   9    -28.1368645 -0.639581E-09  0.251E-04    1.69      96.7  T
     SCC iter.                  ...        0 min,  0.838 sec
     gradient                   ...        0 min,  0.002 sec
 * total energy  :   -27.8115884 Eh     change       -0.2707432E-02 Eh
   gradient norm :     0.0387331 Eh/α   predicted    -0.1828484E-02 ( -32.46%)
   displ. norm   :     0.1185775 α      lambda       -0.4176006E-02
   maximum displ.:     0.0420103 α      in ANC's #10, #3, #24, ...

........................................................................
.............................. CYCLE    7 ..............................
........................................................................

 iter      E             dE          RMSdq      gap      omega  full diag
   1    -28.1392483 -0.281392E+02  0.223E-01    1.65       0.0  T
   2    -28.1392048  0.435766E-04  0.247E-01    1.71       1.0  T
   3    -28.1396288 -0.424028E-03  0.746E-02    1.68       1.0  T
   4    -28.1396212  0.759386E-05  0.241E-02    1.68       1.0  T
   5    -28.1396303 -0.912298E-05  0.654E-03    1.68       3.7  T
   6    -28.1396305 -0.160481E-06  0.357E-03    1.68       6.8  T
   7    -28.1396305 -0.530900E-07  0.273E-03    1.68       8.9  T
   8    -28.1396306 -0.882218E-07  0.805E-04    1.68      30.1  T
   9    -28.1396306 -0.137920E-08  0.390E-04    1.68      62.1  T
     SCC iter.                  ...        0 min,  0.817 sec
     gradient                   ...        0 min,  0.179 sec
 * total energy  :   -27.8146121 Eh     change       -0.3023744E-02 Eh
   gradient norm :     0.0356522 Eh/α   predicted    -0.2117362E-02 ( -29.98%)
   displ. norm   :     0.1599313 α      lambda       -0.3492167E-02
   maximum displ.:     0.0597237 α      in ANC's #10, #12, #1, ...

........................................................................
.............................. CYCLE    8 ..............................
........................................................................

 iter      E             dE          RMSdq      gap      omega  full diag
   1    -28.1426306 -0.281426E+02  0.187E-01    1.68       0.0  T
   2    -28.1426394 -0.884928E-05  0.120E-01    1.69       1.0  T
   3    -28.1425850  0.544129E-04  0.819E-02    1.67       1.0  T
   4    -28.1426537 -0.687193E-04  0.267E-02    1.68       1.0  T
   5    -28.1426608 -0.703320E-05  0.127E-02    1.69       1.9  T
   6    -28.1426620 -0.124121E-05  0.524E-03    1.68       4.6  T
   7    -28.1426621 -0.137779E-06  0.222E-03    1.68      10.9  T
   8    -28.1426622 -0.448369E-07  0.137E-03    1.68      17.7  T
   9    -28.1426622 -0.460255E-08  0.456E-04    1.68      53.2  T
  10    -28.1426622 -0.669900E-09  0.176E-04    1.68     137.4  T
     SCC iter.                  ...        0 min,  1.949 sec
     gradient                   ...        0 min,  0.161 sec
 * total energy  :   -27.8170724 Eh     change       -0.2460305E-02 Eh
   gradient norm :     0.0387320 Eh/α   predicted    -0.1790746E-02 ( -27.21%)
   displ. norm   :     0.1446334 α      lambda       -0.2178631E-02
   maximum displ.:     0.0627022 α      in ANC's #1, #10, #12, ...

........................................................................
.............................. CYCLE    9 ..............................
........................................................................

 iter      E             dE          RMSdq      gap      omega  full diag
   1    -28.1447136 -0.281447E+02  0.219E-01    1.72       0.0  T
   2    -28.1447015  0.120644E-04  0.148E-01    1.69       1.0  T
   3    -28.1448013 -0.997318E-04  0.907E-02    1.72       1.0  T
   4    -28.1448243 -0.230279E-04  0.312E-02    1.71       1.0  T
   5    -28.1448342 -0.986507E-05  0.155E-02    1.71       1.6  T
   6    -28.1448364 -0.226297E-05  0.511E-03    1.71       4.8  T
   7    -28.1448366 -0.184351E-06  0.249E-03    1.71       9.7  T
   8    -28.1448367 -0.491875E-07  0.116E-03    1.71      20.9  T
   9    -28.1448367 -0.200240E-08  0.503E-04    1.71      48.2  T
  10    -28.1448367 -0.774754E-09  0.170E-04    1.71     142.8  T
     SCC iter.                  ...        0 min,  1.387 sec
     gradient                   ...        0 min,  0.171 sec
 * total energy  :   -27.8185937 Eh     change       -0.1521308E-02 Eh
   gradient norm :     0.0326674 Eh/α   predicted    -0.1112101E-02 ( -26.90%)
   displ. norm   :     0.1033873 α      lambda       -0.1334923E-02
   maximum displ.:     0.0496345 α      in ANC's #1, #10, #12, ...

........................................................................
.............................. CYCLE   10 ..............................
........................................................................

 iter      E             dE          RMSdq      gap      omega  full diag
   1    -28.1465628 -0.281466E+02  0.214E-01    1.76       0.0  T
   2    -28.1465482  0.146033E-04  0.186E-01    1.71       1.0  T
   3    -28.1468028 -0.254515E-03  0.621E-02    1.74       1.0  T
   4    -28.1467984  0.435525E-05  0.279E-02    1.74       1.0  T
   5    -28.1468064 -0.799452E-05  0.142E-02    1.73       1.7  T
   6    -28.1468083 -0.185653E-05  0.641E-03    1.74       3.8  T
   7    -28.1468087 -0.434455E-06  0.205E-03    1.74      11.8  T
   8    -28.1468087 -0.286798E-07  0.693E-04    1.74      35.0  T
   9    -28.1468087 -0.100873E-08  0.329E-04    1.74      73.8  T
     SCC iter.                  ...        0 min,  0.847 sec
     gradient                   ...        0 min,  0.002 sec
 * total energy  :   -27.8195316 Eh     change       -0.9378352E-03 Eh
   gradient norm :     0.0215978 Eh/α   predicted    -0.6745965E-03 ( -28.07%)
   displ. norm   :     0.0686005 α      lambda       -0.8445791E-03
   maximum displ.:     0.0303086 α      in ANC's #10, #2, #12, ...

........................................................................
.............................. CYCLE   11 ..............................
........................................................................

 iter      E             dE          RMSdq      gap      omega  full diag
   1    -28.1485879 -0.281486E+02  0.150E-01    1.78       0.0  T
   2    -28.1485897 -0.174885E-05  0.142E-01    1.74       1.0  T
   3    -28.1487357 -0.146038E-03  0.409E-02    1.76       1.0  T
   4    -28.1487320  0.371152E-05  0.189E-02    1.76       1.3  T
   5    -28.1487357 -0.371978E-05  0.899E-03    1.76       2.7  T
   6    -28.1487364 -0.716793E-06  0.451E-03    1.76       5.4  T
   7    -28.1487367 -0.254128E-06  0.134E-03    1.76      18.2  T
   8    -28.1487367 -0.134010E-07  0.372E-04    1.76      65.2  T
   9    -28.1487367 -0.162100E-09  0.166E-04    1.76     146.1  T
     SCC iter.                  ...        0 min,  0.623 sec
     gradient                   ...        0 min,  0.143 sec
 * total energy  :   -27.8201244 Eh     change       -0.5927820E-03 Eh
   gradient norm :     0.0163022 Eh/α   predicted    -0.4242759E-03 ( -28.43%)
   displ. norm   :     0.0599864 α      lambda       -0.5957840E-03
   maximum displ.:     0.0268646 α      in ANC's #10, #30, #2, ...

........................................................................
.............................. CYCLE   12 ..............................
........................................................................

 iter      E             dE          RMSdq      gap      omega  full diag
   1    -28.1501364 -0.281501E+02  0.803E-02    1.79       0.0  T
   2    -28.1501410 -0.459711E-05  0.667E-02    1.77       1.0  T
   3    -28.1501647 -0.237393E-04  0.279E-02    1.78       1.0  T
   4    -28.1501648 -0.894539E-07  0.820E-03    1.78       3.0  T
   5    -28.1501654 -0.545122E-06  0.366E-03    1.78       6.6  T
   6    -28.1501655 -0.105227E-06  0.200E-03    1.78      12.1  T
   7    -28.1501655 -0.432740E-07  0.109E-03    1.78      22.3  T
   8    -28.1501655 -0.126656E-07  0.262E-04    1.78      92.5  T
   9    -28.1501655 -0.203283E-09  0.873E-05    1.78     277.9  T
     SCC iter.                  ...        0 min,  0.758 sec
     gradient                   ...        0 min,  0.148 sec
 * total energy  :   -27.8205687 Eh     change       -0.4443502E-03 Eh
   gradient norm :     0.0186709 Eh/α   predicted    -0.2989653E-03 ( -32.72%)
   displ. norm   :     0.0835714 α      lambda       -0.6698692E-03
   maximum displ.:     0.0360110 α      in ANC's #10, #1, #30, ...

........................................................................
.............................. CYCLE   13 ..............................
........................................................................

 iter      E             dE          RMSdq      gap      omega  full diag
   1    -28.1509222 -0.281509E+02  0.851E-02    1.79       0.0  T
   2    -28.1509256 -0.341527E-05  0.459E-02    1.79       1.0  T
   3    -28.1509171  0.853295E-05  0.332E-02    1.79       1.0  T
   4    -28.1509278 -0.107032E-04  0.107E-02    1.79       2.3  T
   5    -28.1509286 -0.790092E-06  0.414E-03    1.79       5.9  T
   6    -28.1509287 -0.168396E-06  0.271E-03    1.79       8.9  T
   7    -28.1509288 -0.799678E-07  0.970E-04    1.79      25.0  T
   8    -28.1509288 -0.540437E-08  0.335E-04    1.79      72.3  T
     SCC iter.                  ...        0 min,  0.698 sec
     gradient                   ...        0 min,  0.129 sec
 * total energy  :   -27.8210524 Eh     change       -0.4836988E-03 Eh
   gradient norm :     0.0198815 Eh/α   predicted    -0.3372744E-03 ( -30.27%)
   displ. norm   :     0.0865125 α      lambda       -0.5646031E-03
   maximum displ.:     0.0358072 α      in ANC's #10, #1, #4, ...

........................................................................
.............................. CYCLE   14 ..............................
........................................................................

 iter      E             dE          RMSdq      gap      omega  full diag
   1    -28.1504537 -0.281505E+02  0.101E-01    1.79       0.0  T
   2    -28.1504555 -0.174492E-05  0.689E-02    1.80       1.0  T
   3    -28.1504777 -0.222341E-04  0.393E-02    1.79       1.0  T
   4    -28.1504820 -0.429676E-05  0.939E-03    1.80       2.6  T
   5    -28.1504823 -0.328797E-06  0.555E-03    1.80       4.4  T
   6    -28.1504827 -0.344625E-06  0.275E-03    1.80       8.8  T
   7    -28.1504827 -0.546944E-07  0.937E-04    1.80      25.9  T
   8    -28.1504827 -0.851210E-08  0.374E-04    1.80      64.9  T
     SCC iter.                  ...        0 min,  1.345 sec
     gradient                   ...        0 min,  0.117 sec
 * total energy  :   -27.8214536 Eh     change       -0.4011925E-03 Eh
   gradient norm :     0.0169934 Eh/α   predicted    -0.2844139E-03 ( -29.11%)
   displ. norm   :     0.0734952 α      lambda       -0.4336993E-03
   maximum displ.:     0.0295001 α      in ANC's #1, #10, #4, ...

........................................................................
.............................. CYCLE   15 ..............................
........................................................................

 iter      E             dE          RMSdq      gap      omega  full diag
   1    -28.1493764 -0.281494E+02  0.857E-02    1.79       0.0  T
   2    -28.1493772 -0.830014E-06  0.678E-02    1.80       1.0  T
   3    -28.1494066 -0.293938E-04  0.288E-02    1.79       1.0  T
   4    -28.1494070 -0.326117E-06  0.100E-02    1.80       2.4  T
   5    -28.1494078 -0.864182E-06  0.646E-03    1.80       3.8  T
   6    -28.1494082 -0.421962E-06  0.196E-03    1.80      12.4  T
   7    -28.1494083 -0.285170E-07  0.835E-04    1.80      29.1  T
   8    -28.1494083 -0.523345E-08  0.267E-04    1.80      90.8  T
     SCC iter.                  ...        0 min,  0.766 sec
     gradient                   ...        0 min,  0.141 sec
 * total energy  :   -27.8217678 Eh     change       -0.3142327E-03 Eh
   gradient norm :     0.0143545 Eh/α   predicted    -0.2180207E-03 ( -30.62%)
   displ. norm   :     0.0680863 α      lambda       -0.3997925E-03
   maximum displ.:     0.0253866 α      in ANC's #4, #10, #8, ...

........................................................................
.............................. CYCLE   16 ..............................
........................................................................

 iter      E             dE          RMSdq      gap      omega  full diag
   1    -28.1482251 -0.281482E+02  0.618E-02    1.80       0.0  T
   2    -28.1482236  0.148447E-05  0.514E-02    1.81       1.0  T
   3    -28.1482400 -0.164712E-04  0.228E-02    1.80       1.1  T
   4    -28.1482376  0.243228E-05  0.165E-02    1.80       1.5  T
   5    -28.1482415 -0.384532E-05  0.445E-03    1.80       5.5  T
   6    -28.1482416 -0.153351E-06  0.138E-03    1.80      17.5  T
   7    -28.1482416 -0.983560E-08  0.637E-04    1.80      38.1  T
   8    -28.1482416 -0.415193E-08  0.160E-04    1.80     151.3  T
     SCC iter.                  ...        0 min,  0.755 sec
     gradient                   ...        0 min,  0.125 sec
 * total energy  :   -27.8220591 Eh     change       -0.2912359E-03 Eh
   gradient norm :     0.0150431 Eh/α   predicted    -0.2008231E-03 ( -31.04%)
   displ. norm   :     0.0676975 α      lambda       -0.3795848E-03
   maximum displ.:     0.0258017 α      in ANC's #4, #8, #10, ...

........................................................................
.............................. CYCLE   17 ..............................
........................................................................

 iter      E             dE          RMSdq      gap      omega  full diag
   1    -28.1473166 -0.281473E+02  0.475E-02    1.82       0.0  T
   2    -28.1473131  0.353658E-05  0.365E-02    1.82       1.0  T
   3    -28.1473121  0.100712E-05  0.270E-02    1.82       1.0  T
   4    -28.1473202 -0.809411E-05  0.670E-03    1.82       3.6  T
   5    -28.1473206 -0.383913E-06  0.290E-03    1.82       8.4  T
   6    -28.1473206 -0.390016E-07  0.714E-04    1.82      34.0  T
   7    -28.1473206 -0.195520E-08  0.250E-04    1.82      96.8  T
     SCC iter.                  ...        0 min,  0.477 sec
     gradient                   ...        0 min,  0.140 sec
 * total energy  :   -27.8223354 Eh     change       -0.2763712E-03 Eh
   gradient norm :     0.0167014 Eh/α   predicted    -0.1906609E-03 ( -31.01%)
   displ. norm   :     0.0708324 α      lambda       -0.3555322E-03
   maximum displ.:     0.0270281 α      in ANC's #4, #8, #16, ...

........................................................................
.............................. CYCLE   18 ..............................
........................................................................

 iter      E             dE          RMSdq      gap      omega  full diag
   1    -28.1467341 -0.281467E+02  0.576E-02    1.84       0.0  T
   2    -28.1467322  0.190965E-05  0.447E-02    1.84       1.0  T
   3    -28.1467387 -0.656443E-05  0.256E-02    1.84       1.0  T
   4    -28.1467387  0.139200E-07  0.151E-02    1.84       1.6  T
   5    -28.1467421 -0.339096E-05  0.276E-03    1.84       8.8  T
   6    -28.1467421 -0.283063E-07  0.141E-03    1.84      17.2  T
   7    -28.1467422 -0.172718E-07  0.478E-04    1.84      50.8  T
   8    -28.1467422 -0.208661E-08  0.214E-04    1.84     113.3  T
     SCC iter.                  ...        0 min,  1.413 sec
     gradient                   ...        0 min,  0.185 sec
 * total energy  :   -27.8225949 Eh     change       -0.2595068E-03 Eh
   gradient norm :     0.0156623 Eh/α   predicted    -0.1786605E-03 ( -31.15%)
   displ. norm   :     0.0759706 α      lambda       -0.3329564E-03
   maximum displ.:     0.0295173 α      in ANC's #4, #8, #16, ...

........................................................................
.............................. CYCLE   19 ..............................
........................................................................

 iter      E             dE          RMSdq      gap      omega  full diag
   1    -28.1464407 -0.281464E+02  0.659E-02    1.88       0.0  T
   2    -28.1464418 -0.107695E-05  0.545E-02    1.86       1.0  T
   3    -28.1464574 -0.155609E-04  0.244E-02    1.87       1.0  T
   4    -28.1464573  0.635119E-07  0.790E-03    1.87       3.1  T
   5    -28.1464579 -0.641020E-06  0.410E-03    1.87       5.9  T
   6    -28.1464581 -0.194970E-06  0.178E-03    1.87      13.6  T
   7    -28.1464582 -0.342145E-07  0.621E-04    1.87      39.0  T
   8    -28.1464582 -0.318792E-08  0.230E-04    1.87     105.5  T
     SCC iter.                  ...        0 min,  0.798 sec
     gradient                   ...        0 min,  0.186 sec
 * total energy  :   -27.8228359 Eh     change       -0.2409917E-03 Eh
   gradient norm :     0.0120266 Eh/α   predicted    -0.1674392E-03 ( -30.52%)
   displ. norm   :     0.0759305 α      lambda       -0.2875061E-03
   maximum displ.:     0.0300646 α      in ANC's #4, #8, #3, ...

........................................................................
.............................. CYCLE   20 ..............................
........................................................................

 iter      E             dE          RMSdq      gap      omega  full diag
   1    -28.1464316 -0.281464E+02  0.588E-02    1.90       0.0  T
   2    -28.1464307  0.837761E-06  0.497E-02    1.89       1.0  T
   3    -28.1464467 -0.159168E-04  0.229E-02    1.90       1.1  T
   4    -28.1464447  0.198947E-05  0.148E-02    1.90       1.6  T
   5    -28.1464478 -0.312726E-05  0.296E-03    1.90       8.2  T
   6    -28.1464478 -0.397012E-07  0.154E-03    1.90      15.7  T
   7    -28.1464478 -0.170560E-07  0.613E-04    1.90      39.5  T
   8    -28.1464479 -0.222854E-08  0.259E-04    1.90      93.7  T
     SCC iter.                  ...        0 min,  0.709 sec
     gradient                   ...        0 min,  0.138 sec
 * total energy  :   -27.8230420 Eh     change       -0.2060693E-03 Eh
   gradient norm :     0.0100787 Eh/α   predicted    -0.1445813E-03 ( -29.84%)
   displ. norm   :     0.0677028 α      lambda       -0.2294626E-03
   maximum displ.:     0.0265323 α      in ANC's #4, #3, #8, ...
 * RMSD in coord.:     0.3593094 α      energy gain  -0.1334497E+01 Eh

generating ANC from exact Hessian ...
Using Lindh-Hessian (1995)
 Shifting diagonal of input Hessian by    1.9406393035982464E-002
 Lowest  eigenvalues of input Hessian
    0.010000    0.000000    0.000000    0.000000    0.000000    0.000000
    0.000000    0.022382    0.023132    0.023380    0.026434    0.030212
    0.032540    0.037211    0.040886    0.043119    0.048431    0.066951
 Highest eigenvalues
    1.630348    1.955717    2.235908    2.358355    3.531370    3.996048


........................................................................
.............................. CYCLE   21 ..............................
........................................................................

 iter      E             dE          RMSdq      gap      omega  full diag
   1    -28.1466960 -0.281467E+02  0.494E-02    1.92       0.0  T
   2    -28.1466903  0.573934E-05  0.405E-02    1.92       1.0  T
   3    -28.1467025 -0.121919E-04  0.237E-02    1.92       1.0  T
   4    -28.1467038 -0.131813E-05  0.139E-02    1.92       1.7  T
   5    -28.1467063 -0.250985E-05  0.244E-03    1.92       9.9  T
   6    -28.1467063 -0.386400E-09  0.120E-03    1.92      20.3  T
   7    -28.1467063 -0.335358E-08  0.459E-04    1.92      52.8  T
   8    -28.1467063 -0.129126E-08  0.286E-04    1.92      84.8  T
     SCC iter.                  ...        0 min,  0.939 sec
     gradient                   ...        0 min,  0.142 sec
 * total energy  :   -27.8232049 Eh     change       -0.1629418E-03 Eh
   gradient norm :     0.0110523 Eh/α   predicted     0.0000000E+00 (-100.00%)
   displ. norm   :     0.1558227 α      lambda       -0.6535469E-03
   maximum displ.:     0.1169014 α      in ANC's #1, #5, #4, ...

........................................................................
.............................. CYCLE   22 ..............................
........................................................................

 iter      E             dE          RMSdq      gap      omega  full diag
   1    -28.1493176 -0.281493E+02  0.117E-01    1.91       0.0  T
   2    -28.1493174  0.232033E-06  0.694E-02    1.92       1.0  T
   3    -28.1493248 -0.744407E-05  0.502E-02    1.91       1.0  T
   4    -28.1493325 -0.766413E-05  0.245E-02    1.92       1.0  T
   5    -28.1493398 -0.730138E-05  0.102E-02    1.92       2.4  T
   6    -28.1493404 -0.553117E-06  0.305E-03    1.92       8.0  T
   7    -28.1493404 -0.436959E-07  0.134E-03    1.92      18.1  T
   8    -28.1493404 -0.150877E-07  0.536E-04    1.92      45.3  T
   9    -28.1493404 -0.414875E-09  0.194E-04    1.92     125.2  T
     SCC iter.                  ...        0 min,  0.783 sec
     gradient                   ...        0 min,  0.137 sec
 * total energy  :   -27.8236725 Eh     change       -0.4675571E-03 Eh
   gradient norm :     0.0077670 Eh/α   predicted    -0.3347041E-03 ( -28.41%)
   displ. norm   :     0.3149684 α      lambda       -0.1044587E-02
   maximum displ.:     0.1674354 α      in ANC's #5, #1, #4, ...

........................................................................
.............................. CYCLE   23 ..............................
........................................................................

 iter      E             dE          RMSdq      gap      omega  full diag
   1    -28.1529719 -0.281530E+02  0.175E-01    1.94       0.0  T
   2    -28.1529736 -0.163522E-05  0.116E-01    1.96       1.0  T
   3    -28.1529344  0.391877E-04  0.871E-02    1.94       1.0  T
   4    -28.1529927 -0.583590E-04  0.345E-02    1.95       1.0  T
   5    -28.1530097 -0.169226E-04  0.890E-03    1.95       2.7  T
   6    -28.1530103 -0.681509E-06  0.327E-03    1.95       7.4  T
   7    -28.1530104 -0.234912E-07  0.129E-03    1.95      18.9  T
   8    -28.1530104 -0.126258E-07  0.848E-04    1.95      28.6  T
   9    -28.1530104 -0.326445E-08  0.343E-04    1.95      70.8  T
     SCC iter.                  ...        0 min,  0.851 sec
     gradient                   ...        0 min,  0.112 sec
 * total energy  :   -27.8242180 Eh     change       -0.5454607E-03 Eh
   gradient norm :     0.0103673 Eh/α   predicted    -0.5741150E-03 (   5.25%)
   displ. norm   :     0.2730768 α      lambda       -0.5699425E-03
   maximum displ.:     0.2032890 α      in ANC's #1, #5, #4, ...

........................................................................
.............................. CYCLE   24 ..............................
........................................................................

 iter      E             dE          RMSdq      gap      omega  full diag
   1    -28.1515164 -0.281515E+02  0.128E-01    1.97       0.0  T
   2    -28.1515230 -0.655673E-05  0.739E-02    1.99       1.0  T
   3    -28.1515312 -0.825060E-05  0.533E-02    1.97       1.0  T
   4    -28.1515373 -0.611610E-05  0.217E-02    1.98       1.1  T
   5    -28.1515423 -0.498930E-05  0.103E-02    1.98       2.3  T
   6    -28.1515429 -0.616491E-06  0.395E-03    1.98       6.1  T
   7    -28.1515430 -0.933627E-07  0.131E-03    1.98      18.5  T
   8    -28.1515430 -0.904261E-08  0.761E-04    1.98      31.9  T
   9    -28.1515430 -0.263894E-08  0.120E-04    1.98     202.7  T
     SCC iter.                  ...        0 min,  0.886 sec
     gradient                   ...        0 min,  0.178 sec
 * total energy  :   -27.8246399 Eh     change       -0.4219720E-03 Eh
   gradient norm :     0.0188652 Eh/α   predicted    -0.3062204E-03 ( -27.43%)
   displ. norm   :     0.3539107 α      lambda       -0.7429287E-03
   maximum displ.:     0.2407211 α      in ANC's #1, #5, #4, ...

........................................................................
.............................. CYCLE   25 ..............................
........................................................................

 iter      E             dE          RMSdq      gap      omega  full diag
   1    -28.1481894 -0.281482E+02  0.157E-01    2.02       0.0  T
   2    -28.1482022 -0.128115E-04  0.883E-02    2.03       1.0  T
   3    -28.1481918  0.104246E-04  0.565E-02    2.01       1.0  T
   4    -28.1482143 -0.225042E-04  0.143E-02    2.02       1.7  T
   5    -28.1482153 -0.987011E-06  0.742E-03    2.02       3.3  T
   6    -28.1482154 -0.141503E-06  0.476E-03    2.02       5.1  T
   7    -28.1482157 -0.289329E-06  0.117E-03    2.02      20.7  T
   8    -28.1482157 -0.328374E-08  0.826E-04    2.02      29.4  T
   9    -28.1482157 -0.494998E-08  0.145E-04    2.02     166.8  T
     SCC iter.                  ...        0 min,  0.998 sec
     gradient                   ...        0 min,  0.149 sec
 * total energy  :   -27.8251539 Eh     change       -0.5140063E-03 Eh
   gradient norm :     0.0210632 Eh/α   predicted    -0.4179909E-03 ( -18.68%)
   displ. norm   :     0.2350084 α      lambda       -0.4975619E-03
   maximum displ.:     0.1502242 α      in ANC's #1, #2, #4, ...

........................................................................
.............................. CYCLE   26 ..............................
........................................................................

 iter      E             dE          RMSdq      gap      omega  full diag
   1    -28.1473965 -0.281474E+02  0.113E-01    2.05       0.0  T
   2    -28.1473991 -0.260436E-05  0.674E-02    2.05       1.0  T
   3    -28.1473775  0.216222E-04  0.541E-02    2.05       1.0  T
   4    -28.1474043 -0.268106E-04  0.157E-02    2.05       1.5  T
   5    -28.1474069 -0.262114E-05  0.549E-03    2.05       4.4  T
   6    -28.1474073 -0.315866E-06  0.290E-03    2.05       8.4  T
   7    -28.1474073 -0.571781E-07  0.825E-04    2.05      29.4  T
   8    -28.1474073 -0.325522E-08  0.449E-04    2.05      54.0  T
     SCC iter.                  ...        0 min,  1.315 sec
     gradient                   ...        0 min,  0.173 sec
 * total energy  :   -27.8254983 Eh     change       -0.3443714E-03 Eh
   gradient norm :     0.0110985 Eh/α   predicted    -0.2625231E-03 ( -23.77%)
   displ. norm   :     0.3666894 α      lambda       -0.4754843E-03
   maximum displ.:     0.2785648 α      in ANC's #1, #2, #4, ...

........................................................................
.............................. CYCLE   27 ..............................
........................................................................

 iter      E             dE          RMSdq      gap      omega  full diag
   1    -28.1468231 -0.281468E+02  0.150E-01    2.07       0.0  T
   2    -28.1468228  0.348395E-06  0.861E-02    2.07       1.0  T
   3    -28.1467639  0.589081E-04  0.799E-02    2.06       1.0  T
   4    -28.1468315 -0.676106E-04  0.216E-02    2.07       1.1  T
   5    -28.1468383 -0.684471E-05  0.886E-03    2.07       2.7  T
   6    -28.1468389 -0.549054E-06  0.235E-03    2.07      10.3  T
   7    -28.1468389 -0.201416E-07  0.993E-04    2.07      24.4  T
   8    -28.1468389 -0.102710E-08  0.377E-04    2.07      64.4  T
     SCC iter.                  ...        0 min,  1.477 sec
     gradient                   ...        0 min,  0.177 sec
 * total energy  :   -27.8258417 Eh     change       -0.3433499E-03 Eh
   gradient norm :     0.0188870 Eh/α   predicted    -0.2697170E-03 ( -21.45%)
   displ. norm   :     0.3344470 α      lambda       -0.7462701E-03
   maximum displ.:     0.2407210 α      in ANC's #1, #4, #2, ...

........................................................................
.............................. CYCLE   28 ..............................
........................................................................

 iter      E             dE          RMSdq      gap      omega  full diag
   1    -28.1515688 -0.281516E+02  0.148E-01    2.12       0.0  T
   2    -28.1515680  0.746817E-06  0.927E-02    2.11       1.0  T
   3    -28.1515268  0.412170E-04  0.747E-02    2.12       1.0  T
   4    -28.1515798 -0.529783E-04  0.245E-02    2.12       1.0  T
   5    -28.1515868 -0.697890E-05  0.649E-03    2.12       3.7  T
   6    -28.1515869 -0.112721E-06  0.212E-03    2.12      11.5  T
   7    -28.1515869 -0.312893E-07  0.106E-03    2.12      22.9  T
   8    -28.1515869 -0.459999E-08  0.524E-04    2.12      46.3  T
   9    -28.1515869 -0.101528E-08  0.155E-04    2.12     156.8  T
     SCC iter.                  ...        0 min,  0.894 sec
     gradient                   ...        0 min,  0.148 sec
 * total energy  :   -27.8263058 Eh     change       -0.4641051E-03 Eh
   gradient norm :     0.0111510 Eh/α   predicted    -0.4148742E-03 ( -10.61%)
   displ. norm   :     0.4035702 α      lambda       -0.4827386E-03
   maximum displ.:     0.3175844 α      in ANC's #1, #4, #8, ...

........................................................................
.............................. CYCLE   29 ..............................
........................................................................

 iter      E             dE          RMSdq      gap      omega  full diag
   1    -28.1502392 -0.281502E+02  0.180E-01    2.13       0.0  T
   2    -28.1502026  0.366171E-04  0.123E-01    2.13       1.0  T
   3    -28.1502091 -0.651411E-05  0.978E-02    2.13       1.0  T
   4    -28.1502854 -0.762995E-04  0.322E-02    2.13       1.0  T
   5    -28.1503003 -0.149191E-04  0.113E-02    2.13       2.2  T
   6    -28.1503009 -0.559152E-06  0.259E-03    2.13       9.4  T
   7    -28.1503009 -0.176675E-07  0.130E-03    2.13      18.6  T
   8    -28.1503009 -0.911469E-08  0.846E-04    2.13      28.7  T
   9    -28.1503009 -0.275842E-08  0.238E-04    2.13     102.0  T
     SCC iter.                  ...        0 min,  1.010 sec
     gradient                   ...        0 min,  0.128 sec
 * total energy  :   -27.8265684 Eh     change       -0.2626127E-03 Eh
   gradient norm :     0.0301056 Eh/α   predicted    -0.2806886E-03 (   6.88%)
   displ. norm   :     0.1659539 α      lambda       -0.5486800E-03
   maximum displ.:     0.0952964 α      in ANC's #1, #4, #5, ...

........................................................................
.............................. CYCLE   30 ..............................
........................................................................

 iter      E             dE          RMSdq      gap      omega  full diag
   1    -28.1542677 -0.281543E+02  0.838E-02    2.15       0.0  T
   2    -28.1542712 -0.349157E-05  0.543E-02    2.15       1.0  T
   3    -28.1542749 -0.374405E-05  0.343E-02    2.15       1.0  T
   4    -28.1542796 -0.467157E-05  0.630E-03    2.15       3.9  T
   5    -28.1542795  0.392528E-07  0.458E-03    2.15       5.3  T
   6    -28.1542798 -0.215432E-06  0.201E-03    2.15      12.1  T
   7    -28.1542798 -0.493870E-07  0.829E-04    2.15      29.3  T
   8    -28.1542798 -0.663547E-08  0.344E-04    2.15      70.4  T
     SCC iter.                  ...        0 min,  1.347 sec
     gradient                   ...        0 min,  0.153 sec
 * total energy  :   -27.8269310 Eh     change       -0.3625920E-03 Eh
   gradient norm :     0.0154897 Eh/α   predicted    -0.2818970E-03 ( -22.26%)
   displ. norm   :     0.3728762 α      lambda       -0.5521927E-03
   maximum displ.:     0.2928359 α      in ANC's #1, #4, #5, ...

........................................................................
.............................. CYCLE   31 ..............................
........................................................................

 iter      E             dE          RMSdq      gap      omega  full diag
   1    -28.1550626 -0.281551E+02  0.169E-01    2.14       0.0  T
   2    -28.1550602  0.241887E-05  0.932E-02    2.14       1.0  T
   3    -28.1550142  0.459996E-04  0.833E-02    2.14       1.0  T
   4    -28.1550810 -0.668572E-04  0.281E-02    2.14       1.0  T
   5    -28.1550892 -0.818148E-05  0.141E-02    2.14       1.7  T
   6    -28.1550902 -0.104954E-05  0.217E-03    2.14      11.2  T
   7    -28.1550903 -0.560788E-08  0.133E-03    2.14      18.2  T
   8    -28.1550903  0.765731E-09  0.639E-04    2.14      38.0  T
   9    -28.1550903 -0.444195E-08  0.187E-04    2.14     129.8  T
     SCC iter.                  ...        0 min,  1.077 sec
     gradient                   ...        0 min,  0.172 sec
 * total energy  :   -27.8272345 Eh     change       -0.3035444E-03 Eh
   gradient norm :     0.0335366 Eh/α   predicted    -0.3144839E-03 (   3.60%)
   displ. norm   :     0.2671933 α      lambda       -0.6090819E-03
   maximum displ.:     0.1863450 α      in ANC's #1, #4, #8, ...

........................................................................
.............................. CYCLE   32 ..............................
........................................................................

 iter      E             dE          RMSdq      gap      omega  full diag
   1    -28.1522083 -0.281522E+02  0.117E-01    2.16       0.0  T
   2    -28.1522118 -0.354454E-05  0.627E-02    2.16       1.0  T
   3    -28.1521834  0.284046E-04  0.505E-02    2.16       1.0  T
   4    -28.1522154 -0.320117E-04  0.161E-02    2.16       1.5  T
   5    -28.1522175 -0.213327E-05  0.825E-03    2.16       2.9  T
   6    -28.1522181 -0.589841E-06  0.268E-03    2.16       9.0  T
   7    -28.1522182 -0.541490E-07  0.103E-03    2.16      23.6  T
   8    -28.1522182 -0.289661E-08  0.615E-04    2.16      39.4  T
   9    -28.1522182 -0.138163E-08  0.171E-04    2.16     141.7  T
     SCC iter.                  ...        0 min,  1.057 sec
     gradient                   ...        0 min,  0.131 sec
 * total energy  :   -27.8276429 Eh     change       -0.4083851E-03 Eh
   gradient norm :     0.0155032 Eh/α   predicted    -0.3262829E-03 ( -20.10%)
   displ. norm   :     0.2570111 α      lambda       -0.5703666E-03
   maximum displ.:     0.1706975 α      in ANC's #1, #4, #6, ...

........................................................................
.............................. CYCLE   33 ..............................
........................................................................

 iter      E             dE          RMSdq      gap      omega  full diag
   1    -28.1522376 -0.281522E+02  0.117E-01    2.17       0.0  T
   2    -28.1522042  0.334341E-04  0.116E-01    2.16       1.0  T
   3    -28.1523029 -0.986966E-04  0.487E-02    2.17       1.0  T
   4    -28.1522895  0.134148E-04  0.369E-02    2.17       1.0  T
   5    -28.1523097 -0.202089E-04  0.706E-03    2.17       3.4  T
   6    -28.1523097  0.186575E-07  0.341E-03    2.17       7.1  T
   7    -28.1523097 -0.628849E-07  0.154E-03    2.17      15.7  T
   8    -28.1523098 -0.197558E-07  0.663E-04    2.17      36.6  T
   9    -28.1523098 -0.420446E-09  0.154E-04    2.17     157.6  T
     SCC iter.                  ...        0 min,  0.951 sec
     gradient                   ...        0 min,  0.128 sec
 * total energy  :   -27.8280145 Eh     change       -0.3716131E-03 Eh
   gradient norm :     0.0096194 Eh/α   predicted    -0.3040203E-03 ( -18.19%)
   displ. norm   :     0.5877168 α      lambda       -0.7718358E-03
   maximum displ.:     0.4581105 α      in ANC's #1, #4, #8, ...

........................................................................
.............................. CYCLE   34 ..............................
........................................................................

 iter      E             dE          RMSdq      gap      omega  full diag
   1    -28.1450976 -0.281451E+02  0.292E-01    2.14       0.0  T
   2    -28.1450792  0.183831E-04  0.207E-01    2.16       1.0  T
   3    -28.1453125 -0.233250E-03  0.113E-01    2.15       1.0  T
   4    -28.1453033  0.915656E-05  0.676E-02    2.15       1.0  T
   5    -28.1453719 -0.685418E-04  0.206E-02    2.16       1.2  T
   6    -28.1453733 -0.142861E-05  0.620E-03    2.16       3.9  T
   7    -28.1453736 -0.288819E-06  0.283E-03    2.16       8.6  T
   8    -28.1453736 -0.605759E-07  0.150E-03    2.16      16.2  T
   9    -28.1453736 -0.435820E-08  0.335E-04    2.16      72.4  T
  10    -28.1453736 -0.412086E-09  0.157E-04    2.16     154.5  T
     SCC iter.                  ...        0 min,  0.851 sec
     gradient                   ...        0 min,  0.128 sec
 * total energy  :   -27.8280473 Eh     change       -0.3278085E-04 Eh
   gradient norm :     0.0537162 Eh/α   predicted    -0.5192181E-03 (1483.91%)
   displ. norm   :     0.2155487 α      lambda       -0.1635530E-02
   maximum displ.:     0.1263962 α      in ANC's #3, #2, #1, ...

........................................................................
.............................. CYCLE   35 ..............................
........................................................................

 iter      E             dE          RMSdq      gap      omega  full diag
   1    -28.1539557 -0.281540E+02  0.154E-01    2.20       0.0  T
   2    -28.1539197  0.360749E-04  0.130E-01    2.20       1.0  T
   3    -28.1540558 -0.136174E-03  0.700E-02    2.20       1.0  T
   4    -28.1540515  0.436496E-05  0.450E-02    2.20       1.0  T
   5    -28.1540833 -0.318293E-04  0.802E-03    2.20       3.0  T
   6    -28.1540834 -0.127664E-06  0.396E-03    2.20       6.1  T
   7    -28.1540835 -0.617483E-07  0.165E-03    2.20      14.7  T
   8    -28.1540835 -0.262117E-07  0.464E-04    2.20      52.3  T
   9    -28.1540835 -0.298673E-09  0.141E-04    2.20     171.5  T
     SCC iter.                  ...        0 min,  0.834 sec
     gradient                   ...        0 min,  0.210 sec
 * total energy  :   -27.8285534 Eh     change       -0.5060790E-03 Eh
   gradient norm :     0.0272424 Eh/α   predicted    -0.8557619E-03 (  69.10%)
   displ. norm   :     0.1803158 α      lambda       -0.1030206E-02
   maximum displ.:     0.1122057 α      in ANC's #4, #2, #6, ...

........................................................................
.............................. CYCLE   36 ..............................
........................................................................

 iter      E             dE          RMSdq      gap      omega  full diag
   1    -28.1522645 -0.281523E+02  0.207E-01    2.20       0.0  T
   2    -28.1522531  0.114360E-04  0.254E-01    2.17       1.0  T
   3    -28.1527163 -0.463224E-03  0.830E-02    2.18       1.0  T
   4    -28.1526538  0.624979E-04  0.706E-02    2.19       1.0  T
   5    -28.1527272 -0.733891E-04  0.958E-03    2.19       2.5  T
   6    -28.1527275 -0.275824E-06  0.514E-03    2.19       4.7  T
   7    -28.1527277 -0.155667E-06  0.230E-03    2.19      10.6  T
   8    -28.1527277 -0.517304E-07  0.942E-04    2.19      25.7  T
   9    -28.1527277 -0.157975E-08  0.448E-04    2.19      54.2  T
     SCC iter.                  ...        0 min,  0.908 sec
     gradient                   ...        0 min,  0.128 sec
 * total energy  :   -27.8288481 Eh     change       -0.2947631E-03 Eh
   gradient norm :     0.0164606 Eh/α   predicted    -0.5318492E-03 (  80.43%)
   displ. norm   :     0.3028667 α      lambda       -0.7221715E-03
   maximum displ.:     0.2280921 α      in ANC's #1, #4, #8, ...

........................................................................
.............................. CYCLE   37 ..............................
........................................................................

 iter      E             dE          RMSdq      gap      omega  full diag
   1    -28.1514478 -0.281514E+02  0.177E-01    2.17       0.0  T
   2    -28.1514534 -0.566444E-05  0.148E-01    2.19       1.0  T
   3    -28.1516160 -0.162563E-03  0.535E-02    2.18       1.0  T
   4    -28.1516025  0.134849E-04  0.361E-02    2.18       1.0  T
   5    -28.1516215 -0.190023E-04  0.112E-02    2.18       2.2  T
   6    -28.1516219 -0.370897E-06  0.393E-03    2.18       6.2  T
   7    -28.1516220 -0.149024E-06  0.169E-03    2.18      14.4  T
   8    -28.1516221 -0.195553E-07  0.913E-04    2.18      26.6  T
   9    -28.1516221 -0.126813E-08  0.284E-04    2.18      85.5  T
     SCC iter.                  ...        0 min,  0.788 sec
     gradient                   ...        0 min,  0.121 sec
 * total energy  :   -27.8293119 Eh     change       -0.4638022E-03 Eh
   gradient norm :     0.0210762 Eh/α   predicted    -0.3942007E-03 ( -15.01%)
   displ. norm   :     0.2181093 α      lambda       -0.3773180E-03
   maximum displ.:     0.1473402 α      in ANC's #1, #4, #8, ...

........................................................................
.............................. CYCLE   38 ..............................
........................................................................

 iter      E             dE          RMSdq      gap      omega  full diag
   1    -28.1525923 -0.281526E+02  0.971E-02    2.19       0.0  T
   2    -28.1525780  0.142897E-04  0.856E-02    2.20       1.0  T
   3    -28.1526310 -0.529850E-04  0.367E-02    2.19       1.0  T
   4    -28.1526247  0.624158E-05  0.284E-02    2.19       1.0  T
   5    -28.1526370 -0.123111E-04  0.669E-03    2.19       3.6  T
   6    -28.1526371 -0.527928E-07  0.241E-03    2.19      10.0  T
   7    -28.1526371 -0.664909E-07  0.896E-04    2.19      27.1  T
   8    -28.1526372 -0.461550E-08  0.488E-04    2.19      49.7  T
     SCC iter.                  ...        0 min,  0.781 sec
     gradient                   ...        0 min,  0.205 sec
 * total energy  :   -27.8295801 Eh     change       -0.2681848E-03 Eh
   gradient norm :     0.0223677 Eh/α   predicted    -0.1976326E-03 ( -26.31%)
   displ. norm   :     0.2571346 α      lambda       -0.5612979E-03
   maximum displ.:     0.1536544 α      in ANC's #1, #4, #3, ...

........................................................................
.............................. CYCLE   39 ..............................
........................................................................

 iter      E             dE          RMSdq      gap      omega  full diag
   1    -28.1572155 -0.281572E+02  0.915E-02    2.21       0.0  T
   2    -28.1572170 -0.151610E-05  0.518E-02    2.21       1.0  T
   3    -28.1572116  0.541526E-05  0.286E-02    2.21       1.0  T
   4    -28.1572183 -0.669819E-05  0.723E-03    2.21       3.4  T
   5    -28.1572181  0.191790E-06  0.422E-03    2.21       5.8  T
   6    -28.1572183 -0.198583E-06  0.183E-03    2.21      13.3  T
   7    -28.1572183 -0.376967E-07  0.780E-04    2.21      31.1  T
   8    -28.1572183 -0.202671E-08  0.451E-04    2.21      53.8  T
     SCC iter.                  ...        0 min,  1.173 sec
     gradient                   ...        0 min,  0.133 sec
 * total energy  :   -27.8299581 Eh     change       -0.3779595E-03 Eh
   gradient norm :     0.0142392 Eh/α   predicted    -0.2992056E-03 ( -20.84%)
   displ. norm   :     0.4852922 α      lambda       -0.6365548E-03
   maximum displ.:     0.2914676 α      in ANC's #1, #4, #3, ...

........................................................................
.............................. CYCLE   40 ..............................
........................................................................

 iter      E             dE          RMSdq      gap      omega  full diag
   1    -28.1532260 -0.281532E+02  0.162E-01    2.21       0.0  T
   2    -28.1532356 -0.961322E-05  0.113E-01    2.20       1.0  T
   3    -28.1532436 -0.802630E-05  0.694E-02    2.21       1.0  T
   4    -28.1532706 -0.269483E-04  0.183E-02    2.21       1.3  T
   5    -28.1532704  0.203135E-06  0.150E-02    2.21       1.6  T
   6    -28.1532732 -0.280158E-05  0.386E-03    2.21       6.3  T
   7    -28.1532732 -0.439210E-07  0.172E-03    2.21      14.1  T
   8    -28.1532732 -0.304335E-07  0.781E-04    2.21      31.0  T
   9    -28.1532732 -0.100445E-08  0.164E-04    2.21     147.6  T
     SCC iter.                  ...        0 min,  0.808 sec
     gradient                   ...        0 min,  0.144 sec
 * total energy  :   -27.8302215 Eh     change       -0.2633905E-03 Eh
   gradient norm :     0.0241581 Eh/α   predicted    -0.3932341E-03 (  49.30%)
   displ. norm   :     0.1572829 α      lambda       -0.8457954E-03
   maximum displ.:     0.0646448 α      in ANC's #5, #4, #6, ...

........................................................................
.............................. CYCLE   41 ..............................
........................................................................

 iter      E             dE          RMSdq      gap      omega  full diag
   1    -28.1604296 -0.281604E+02  0.210E-01    2.27       0.0  T
   2    -28.1604944 -0.648581E-04  0.212E-01    2.24       1.0  T
   3    -28.1608500 -0.355585E-03  0.604E-02    2.25       1.0  T
   4    -28.1608314  0.186051E-04  0.359E-02    2.25       1.0  T
   5    -28.1608511 -0.196645E-04  0.110E-02    2.25       2.2  T
   6    -28.1608522 -0.110427E-05  0.404E-03    2.25       6.0  T
   7    -28.1608522 -0.611339E-07  0.230E-03    2.25      10.5  T
   8    -28.1608523 -0.484499E-07  0.609E-04    2.25      39.8  T
   9    -28.1608523 -0.553751E-09  0.257E-04    2.25      94.4  T
     SCC iter.                  ...        0 min,  0.705 sec
     gradient                   ...        0 min,  0.068 sec
 * total energy  :   -27.8300731 Eh     change        0.1484184E-03 Eh
   gradient norm :     0.0376045 Eh/α   predicted    -0.4333590E-03 (-391.98%)
   displ. norm   :     0.1838338 α      lambda       -0.1160739E-02
   maximum displ.:     0.1117647 α      in ANC's #1, #5, #10, ...

........................................................................
.............................. CYCLE   42 ..............................
........................................................................

 iter      E             dE          RMSdq      gap      omega  full diag
   1    -28.1556164 -0.281556E+02  0.168E-01    2.19       0.0  T
   2    -28.1556228 -0.642421E-05  0.148E-01    2.21       1.0  T
   3    -28.1558107 -0.187919E-03  0.506E-02    2.20       1.0  T
   4    -28.1557974  0.133302E-04  0.344E-02    2.20       1.0  T
   5    -28.1558145 -0.170899E-04  0.915E-03    2.20       2.7  T
   6    -28.1558146 -0.869567E-07  0.356E-03    2.20       6.8  T
   7    -28.1558147 -0.988496E-07  0.176E-03    2.20      13.8  T
   8    -28.1558147 -0.214860E-07  0.963E-04    2.20      25.2  T
   9    -28.1558147 -0.183740E-08  0.333E-04    2.20      72.9  T
     SCC iter.                  ...        0 min,  0.376 sec
     gradient                   ...        0 min,  0.122 sec
 * total energy  :   -27.8305351 Eh     change       -0.4620171E-03 Eh
   gradient norm :     0.0220389 Eh/α   predicted    -0.5999830E-03 (  29.86%)
   displ. norm   :     0.1586552 α      lambda       -0.5708487E-03
   maximum displ.:     0.0962184 α      in ANC's #2, #5, #1, ...
 * RMSD in coord.:     1.0271068 α      energy gain  -0.7493070E-02 Eh

generating ANC from exact Hessian ...
Using Lindh-Hessian (1995)
 Shifting diagonal of input Hessian by    1.6775709068286185E-002
 Lowest  eigenvalues of input Hessian
    0.010000    0.000000    0.000000    0.000000    0.000000    0.000000
    0.000000    0.020247    0.020537    0.021854    0.024967    0.027682
    0.029940    0.032824    0.039940    0.040564    0.046696    0.069307
 Highest eigenvalues
    1.609500    1.956139    2.249519    2.368298    3.637374    3.914359


........................................................................
.............................. CYCLE   43 ..............................
........................................................................

 iter      E             dE          RMSdq      gap      omega  full diag
   1    -28.1586657 -0.281587E+02  0.103E-01    2.21       0.0  T
   2    -28.1586672 -0.156148E-05  0.593E-02    2.21       1.0  T
   3    -28.1586320  0.352419E-04  0.577E-02    2.21       1.0  T
   4    -28.1586748 -0.428548E-04  0.145E-02    2.21       1.7  T
   5    -28.1586770 -0.213051E-05  0.549E-03    2.21       4.4  T
   6    -28.1586772 -0.267178E-06  0.217E-03    2.21      11.2  T
   7    -28.1586773 -0.231288E-07  0.107E-03    2.21      22.6  T
   8    -28.1586773 -0.681570E-08  0.483E-04    2.21      50.2  T
   9    -28.1586773 -0.543121E-09  0.217E-04    2.21     111.7  T
     SCC iter.                  ...        0 min,  0.728 sec
     gradient                   ...        0 min,  0.164 sec
 * total energy  :   -27.8304742 Eh     change        0.6086716E-04 Eh
   gradient norm :     0.0269085 Eh/α   predicted     0.0000000E+00 (-100.00%)
   displ. norm   :     0.0747129 α      lambda       -0.5856723E-03
   maximum displ.:     0.0358697 α      in ANC's #8, #1, #10, ...

........................................................................
.............................. CYCLE   44 ..............................
........................................................................

 iter      E             dE          RMSdq      gap      omega  full diag
   1    -28.1585792 -0.281586E+02  0.100E-01    2.24       0.0  T
   2    -28.1585784  0.751890E-06  0.574E-02    2.24       1.0  T
   3    -28.1585629  0.154872E-04  0.525E-02    2.24       1.0  T
   4    -28.1585882 -0.252729E-04  0.166E-02    2.24       1.5  T
   5    -28.1585911 -0.287090E-05  0.835E-03    2.24       2.9  T
   6    -28.1585915 -0.459232E-06  0.220E-03    2.24      11.0  T
   7    -28.1585915 -0.596689E-08  0.889E-04    2.24      27.3  T
   8    -28.1585915 -0.136962E-08  0.583E-04    2.24      41.6  T
     SCC iter.                  ...        0 min,  0.817 sec
     gradient                   ...        0 min,  0.196 sec
 * total energy  :   -27.8307335 Eh     change       -0.2593249E-03 Eh
   gradient norm :     0.0048577 Eh/α   predicted    -0.2944711E-03 (  13.55%)
   displ. norm   :     0.1046919 α      lambda       -0.2324159E-03
   maximum displ.:     0.0957713 α      in ANC's #1, #7, #4, ...

........................................................................
.............................. CYCLE   45 ..............................
........................................................................

 iter      E             dE          RMSdq      gap      omega  full diag
   1    -28.1584173 -0.281584E+02  0.906E-02    2.22       0.0  T
   2    -28.1584222 -0.489869E-05  0.483E-02    2.22       1.0  T
   3    -28.1584165  0.563048E-05  0.321E-02    2.22       1.0  T
   4    -28.1584255 -0.897742E-05  0.103E-02    2.22       2.4  T
   5    -28.1584257 -0.222420E-06  0.357E-03    2.22       6.8  T
   6    -28.1584257  0.554322E-07  0.314E-03    2.22       7.7  T
   7    -28.1584258 -0.112140E-06  0.873E-04    2.22      27.8  T
   8    -28.1584258 -0.464985E-08  0.473E-04    2.22      51.3  T
     SCC iter.                  ...        0 min,  0.793 sec
     gradient                   ...        0 min,  0.137 sec
 * total energy  :   -27.8307893 Eh     change       -0.5579613E-04 Eh
   gradient norm :     0.0088548 Eh/α   predicted    -0.1174850E-03 ( 110.56%)
   displ. norm   :     0.0273295 α      lambda       -0.7335483E-04
   maximum displ.:     0.0161472 α      in ANC's #8, #4, #11, ...

........................................................................
.............................. CYCLE   46 ..............................
........................................................................

 iter      E             dE          RMSdq      gap      omega  full diag
   1    -28.1582881 -0.281583E+02  0.316E-02    2.23       0.0  T
   2    -28.1582888 -0.756220E-06  0.159E-02    2.23       1.5  T
   3    -28.1582881  0.784912E-06  0.930E-03    2.23       2.6  T
   4    -28.1582892 -0.112649E-05  0.339E-03    2.23       7.2  T
   5    -28.1582892  0.157838E-07  0.258E-03    2.23       9.4  T
   6    -28.1582893 -0.765213E-07  0.913E-04    2.23      26.6  T
   7    -28.1582893 -0.522457E-08  0.440E-04    2.23      55.1  T
     SCC iter.                  ...        0 min,  0.856 sec
     gradient                   ...        0 min,  0.169 sec
 * total energy  :   -27.8308398 Eh     change       -0.5045947E-04 Eh
   gradient norm :     0.0023143 Eh/α   predicted    -0.3670460E-04 ( -27.26%)
   displ. norm   :     0.0702436 α      lambda       -0.4974964E-04
   maximum displ.:     0.0480946 α      in ANC's #1, #4, #8, ...

........................................................................
.............................. CYCLE   47 ..............................
........................................................................

 iter      E             dE          RMSdq      gap      omega  full diag
   1    -28.1580697 -0.281581E+02  0.324E-02    2.23       0.0  T
   2    -28.1580701 -0.399830E-06  0.166E-02    2.23       1.5  T
   3    -28.1580696  0.408085E-06  0.697E-03    2.23       3.5  T
   4    -28.1580702 -0.535486E-06  0.304E-03    2.23       8.0  T
   5    -28.1580702  0.640517E-08  0.202E-03    2.23      12.0  T
   6    -28.1580702 -0.472064E-07  0.824E-04    2.23      29.4  T
   7    -28.1580702 -0.716679E-08  0.236E-04    2.23     102.9  T
     SCC iter.                  ...        0 min,  0.592 sec
     gradient                   ...        0 min,  0.139 sec
 * total energy  :   -27.8308796 Eh     change       -0.3984963E-04 Eh
   gradient norm :     0.0026184 Eh/α   predicted    -0.2499695E-04 ( -37.27%)
   displ. norm   :     0.2053433 α      lambda       -0.9955111E-04
   maximum displ.:     0.1534976 α      in ANC's #1, #4, #8, ...

........................................................................
.............................. CYCLE   48 ..............................
........................................................................

 iter      E             dE          RMSdq      gap      omega  full diag
   1    -28.1572898 -0.281573E+02  0.797E-02    2.23       0.0  T
   2    -28.1572915 -0.164662E-05  0.427E-02    2.24       1.0  T
   3    -28.1572878  0.365412E-05  0.243E-02    2.23       1.0  T
   4    -28.1572926 -0.473962E-05  0.748E-03    2.24       3.2  T
   5    -28.1572923  0.284278E-06  0.604E-03    2.24       4.0  T
   6    -28.1572928 -0.507113E-06  0.164E-03    2.24      14.8  T
   7    -28.1572928 -0.243685E-07  0.634E-04    2.24      38.3  T
   8    -28.1572928 -0.113894E-08  0.417E-04    2.24      58.2  T
     SCC iter.                  ...        0 min,  0.784 sec
     gradient                   ...        0 min,  0.125 sec
 * total energy  :   -27.8309475 Eh     change       -0.6782243E-04 Eh
   gradient norm :     0.0090798 Eh/α   predicted    -0.5187289E-04 ( -23.52%)
   displ. norm   :     0.1699096 α      lambda       -0.6568378E-04
   maximum displ.:     0.1282384 α      in ANC's #1, #4, #8, ...

........................................................................
.............................. CYCLE   49 ..............................
........................................................................

 iter      E             dE          RMSdq      gap      omega  full diag
   1    -28.1569310 -0.281569E+02  0.621E-02    2.24       0.0  T
   2    -28.1569317 -0.742547E-06  0.344E-02    2.24       1.0  T
   3    -28.1569300  0.174869E-05  0.169E-02    2.24       1.4  T
   4    -28.1569321 -0.214777E-05  0.548E-03    2.24       4.4  T
   5    -28.1569321  0.137548E-07  0.329E-03    2.24       7.4  T
   6    -28.1569322 -0.115606E-06  0.150E-03    2.24      16.1  T
   7    -28.1569323 -0.286844E-07  0.462E-04    2.24      52.5  T
   8    -28.1569323  0.120941E-09  0.279E-04    2.24      86.9  T
     SCC iter.                  ...        0 min,  0.698 sec
     gradient                   ...        0 min,  0.146 sec
 * total energy  :   -27.8309976 Eh     change       -0.5012486E-04 Eh
   gradient norm :     0.0101535 Eh/α   predicted    -0.3379287E-04 ( -32.58%)
   displ. norm   :     0.2117748 α      lambda       -0.1076861E-03
   maximum displ.:     0.1567216 α      in ANC's #1, #4, #8, ...

........................................................................
.............................. CYCLE   50 ..............................
........................................................................

 iter      E             dE          RMSdq      gap      omega  full diag
   1    -28.1572621 -0.281573E+02  0.760E-02    2.24       0.0  T
   2    -28.1572628 -0.667555E-06  0.444E-02    2.24       1.0  T
   3    -28.1572541  0.864730E-05  0.254E-02    2.24       1.0  T
   4    -28.1572632 -0.910240E-05  0.687E-03    2.24       3.5  T
   5    -28.1572635 -0.285182E-06  0.362E-03    2.24       6.7  T
   6    -28.1572636 -0.115448E-06  0.138E-03    2.24      17.5  T
   7    -28.1572637 -0.131392E-07  0.524E-04    2.24      46.3  T
   8    -28.1572637 -0.351292E-09  0.149E-04    2.24     163.1  T
     SCC iter.                  ...        0 min,  2.276 sec
     gradient                   ...        0 min,  0.190 sec
 * total energy  :   -27.8310756 Eh     change       -0.7804833E-04 Eh
   gradient norm :     0.0060657 Eh/α   predicted    -0.5625912E-04 ( -27.92%)
   displ. norm   :     0.1570953 α      lambda       -0.7312644E-04
   maximum displ.:     0.1182193 α      in ANC's #1, #4, #3, ...

........................................................................
.............................. CYCLE   51 ..............................
........................................................................

 iter      E             dE          RMSdq      gap      omega  full diag
   1    -28.1582462 -0.281582E+02  0.569E-02    2.24       0.0  T
   2    -28.1582464 -0.165428E-06  0.356E-02    2.24       1.0  T
   3    -28.1582364  0.997423E-05  0.297E-02    2.24       1.0  T
   4    -28.1582475 -0.111089E-04  0.702E-03    2.24       3.5  T
   5    -28.1582481 -0.559631E-06  0.308E-03    2.24       7.9  T
   6    -28.1582482 -0.602984E-07  0.995E-04    2.24      24.4  T
   7    -28.1582482 -0.228351E-08  0.458E-04    2.24      53.0  T
     SCC iter.                  ...        0 min,  1.468 sec
     gradient                   ...        0 min,  0.199 sec
 * total energy  :   -27.8311258 Eh     change       -0.5017826E-04 Eh
   gradient norm :     0.0020927 Eh/α   predicted    -0.3746666E-04 ( -25.33%)
   displ. norm   :     0.1881331 α      lambda       -0.3718323E-04
   maximum displ.:     0.1442993 α      in ANC's #1, #4, #3, ...

........................................................................
.............................. CYCLE   52 ..............................
[...]

 iter      E             dE          RMSdq      gap      omega  full diag
   1    -28.1587873 -0.281588E+02  0.807E-03    2.25       0.0  T
   2    -28.1587873 -0.557494E-07  0.562E-03    2.25       4.3  T
   3    -28.1587874 -0.919115E-07  0.320E-03    2.25       7.6  T
   4    -28.1587875 -0.388402E-07  0.654E-04    2.25      37.1  T
   5    -28.1587875  0.106290E-09  0.340E-04    2.25      71.3  T
     SCC iter.                  ...        0 min,  1.132 sec
     gradient                   ...        0 min,  0.201 sec
 * total energy  :   -27.8312576 Eh     change       -0.1369391E-05 Eh
   gradient norm :     0.0009553 Eh/α   predicted    -0.1277492E-05 (  -6.71%)
   displ. norm   :     0.0146691 α      lambda       -0.8878199E-06
   maximum displ.:     0.0121584 α      in ANC's #2, #3, #4, ...

   *** GEOMETRY OPTIMIZATION CONVERGED AFTER 64 ITERATIONS ***

------------------------------------------------------------------------
 total energy gain   :        -1.3427131 Eh     -842.5652 kcal/mol
 total RMSD          :         1.3436907 a0        0.7111 Å
 total power (kW/mol):       -55.0826993 (step)  -44.5202 (real)
------------------------------------------------------------------------

 ANCopt (total)                0 d,  0 h,  1 min, 19.184 sec
 optimizer setup                ...        0 min,  0.000 sec (  0.000%)
 model hessian                  ...        0 min,  0.005 sec (  0.006%)
 ANC generation                 ...        0 min,  0.003 sec (  0.004%)
 coordinate transformation      ...        0 min,  0.001 sec (  0.001%)
 single point calculation       ...        1 min, 18.271 sec ( 98.846%)
 optimization log               ...        0 min,  0.011 sec (  0.013%)
 hessian update                 ...        0 min,  0.818 sec (  1.033%)
 rational function              ...        0 min,  0.053 sec (  0.067%)

================
 final structure:
================
17
 xtb: 6.7.1 (edcfbbe)
C           -2.60918036995371       -0.99494279407066       -0.42714684061197
C           -1.44896746262073       -0.09849428047387       -0.38550696403321
C           -1.25147697968855        1.12015630405841        0.08265853099724
C           -0.00952500094167        1.84130837231445        0.21901001540170
N            1.18347647954228        1.44056405887938       -0.00382344207400
N            1.63035036684930        0.46610149710827       -0.68516053164950
C            2.86838328277695       -0.14150083989458       -0.29046630659439
S            0.33889031367311       -1.19636290294998       -1.28008728041188
O            0.62554597549871       -2.29584883612256       -0.36840772064761
H           -2.93811646135351       -1.15272944543113       -1.45484363754675
H           -2.33680343196082       -1.96508234991687       -0.01068744310777
H           -3.43914272565883       -0.58509494343307        0.15061706351153
H           -2.10996357307182        1.64721095388071        0.49575485704168
H           -0.06300975010713        2.82059362654734        0.67502741569352
H            3.47009111309425        0.57086849461810        0.27422895159494
H            3.40369715044273       -0.45435256392684       -1.18683289028717
H            2.68575107348579       -1.02239335118012        0.33567222272180

 Bond Distances (Angstroems)
 ---------------------------
C1-C2=1.4668         C1-H10=1.0905        C1-H11=1.0903        C1-H12=1.0912        C2-C1=1.4668         C2-C3=1.3203         
C2-S8=2.2808         C3-C2=1.3203         C3-C4=1.4426         C3-H13=1.0888        C4-C3=1.4426         C4-N5=1.2781         
C4-H14=1.0816        N5-C4=1.2781         N5-N6=1.2702         N6-N5=1.2702         N6-C7=1.4345         N6-S8=2.1876         
C7-N6=1.4345         C7-H15=1.0901        C7-H16=1.0899        C7-H17=1.0961        S8-C2=2.2808         S8-N6=2.1876         
S8-O9=1.4568         O9-S8=1.4568         H10-C1=1.0905        H11-C1=1.0903        H12-C1=1.0912        H13-C3=1.0888        
H14-C4=1.0816        H15-C7=1.0901        H16-C7=1.0899        H17-C7=1.0961        
 C  H  Rav=1.0898 sigma=0.0037  Rmin=1.0816  Rmax=1.0961     8
 C  C  Rav=1.4099 sigma=0.0641  Rmin=1.3203  Rmax=1.4668     3
 N  C  Rav=1.3563 sigma=0.0782  Rmin=1.2781  Rmax=1.4345     2
 N  N  Rav=1.2702 sigma=0.0000  Rmin=1.2702  Rmax=1.2702     1
 S  C  Rav=2.2808 sigma=0.0000  Rmin=2.2808  Rmax=2.2808     1
 S  N  Rav=2.1876 sigma=0.0000  Rmin=2.1876  Rmax=2.1876     1
 S  O  Rav=1.4568 sigma=0.0000  Rmin=1.4568  Rmax=1.4568     1

 selected bond angles (degree)
 --------------------
H10-C1-C2=110.72               H11-C1-C2=109.59               H11-C1-H10=107.85              H12-C1-C2=110.92               
H12-C1-H10=108.90              H12-C1-H11=108.78              C3-C2-C1=133.83                S8-C2-C1=108.34                
S8-C2-C3=117.78                C4-C3-C2=128.59                H13-C3-C2=117.61               H13-C3-C4=113.64               
N5-C4-C3=129.08                H14-C4-C3=116.74               H14-C4-N5=113.80               N6-N5-C4=131.49                
C7-N6-N5=118.75                S8-N6-N5=121.41                S8-N6-C7=105.22                H15-C7-N6=110.01               
H16-C7-N6=108.61               H16-C7-H15=110.03              H17-C7-N6=110.72               H17-C7-H15=108.74              
H17-C7-H16=108.72              N6-S8-C2= 89.44                O9-S8-C2=105.79                O9-S8-N6=106.69                

 selected dihedral angles (degree)
 ---------------------------------
C3-C2-C1-H10=113.39           C3-C2-C1-H11=232.24           C3-C2-C1-H12=352.37           S8-C2-C1-H10=290.72           
S8-C2-C1-H11= 49.58           S8-C2-C1-H12=169.71           C4-C3-C2-C1=171.20            C4-C3-C2-S8=354.05            
H13-C3-C2-C1=356.27           H13-C3-C2-S8=179.12           N5-C4-C3-C2=355.29            N5-C4-C3-H13=170.39           
H14-C4-C3-C2=182.91           H14-C4-C3-H13=358.01          N6-N5-C4-C3= 19.28            N6-N5-C4-H14=191.84           
C7-N6-N5-C4=209.46            S8-N6-N5-C4=342.76            H15-C7-N6-N5=335.48           H15-C7-N6-S8=195.55           
H16-C7-N6-N5=215.00           H16-C7-N6-S8= 75.07           H17-C7-N6-N5= 95.69           H17-C7-N6-S8=315.76           
           -------------------------------------------------
          |                Final Singlepoint                |
           -------------------------------------------------

          ...................................................
          :                      SETUP                      :
          :.................................................:
          :  # basis functions                  50          :
          :  # atomic orbitals                  49          :
          :  # shells                           27          :
          :  # electrons                        50          :
          :  max. iterations                   250          :
          :  Hamiltonian                  GFN2-xTB          :
          :  restarted?                      false          :
          :  GBSA solvation                  false          :
          :  PC potential                    false          :
          :  electronic temp.          300.0000000     K    :
          :  accuracy                    1.0000000          :
          :  -> integral cutoff          0.2500000E+02      :
          :  -> integral neglect         0.1000000E-07      :
          :  -> SCF convergence          0.1000000E-05 Eh   :
          :  -> wf. convergence          0.1000000E-03 e    :
          :  Broyden damping             0.4000000          :
          :  net charge                          0          :
          :  unpaired electrons                  0          :
          ...................................................

 iter      E             dE          RMSdq      gap      omega  full diag
   1    -28.1587875 -0.281588E+02  0.160E-04    2.25       0.0  T
   2    -28.1587875  0.131060E-10  0.129E-04    2.25     188.4  T
   3    -28.1587875 -0.228745E-09  0.605E-05    2.25     401.2  T

   *** convergence criteria satisfied after 3 iterations ***

         #    Occupation            Energy/Eh            Energy/eV
      -------------------------------------------------------------
         1        2.0000           -0.7444745             -20.2582
       ...           ...                  ...                  ...
        19        2.0000           -0.4789272             -13.0323
        20        2.0000           -0.4674229             -12.7192
        21        2.0000           -0.4492796             -12.2255
        22        2.0000           -0.4282386             -11.6530
        23        2.0000           -0.3764602             -10.2440
        24        2.0000           -0.3742482             -10.1838
        25        2.0000           -0.3565640              -9.7026 (HOMO)
        26                         -0.2739507              -7.4546 (LUMO)
        27                         -0.2560382              -6.9672
        28                         -0.2470702              -6.7231
        29                         -0.1583438              -4.3088
        30                         -0.1344293              -3.6580
       ...                                ...                  ...
        49                          0.8774529              23.8767
      -------------------------------------------------------------
                  HL-Gap            0.0826133 Eh            2.2480 eV
             Fermi-level           -0.3152574 Eh           -8.5786 eV

 SCC (total)                   0 d,  0 h,  0 min,  0.515 sec
 SCC setup                      ...        0 min,  0.016 sec (  3.020%)
 Dispersion                     ...        0 min,  0.022 sec (  4.306%)
 classical contributions        ...        0 min,  0.015 sec (  2.966%)
 integral evaluation            ...        0 min,  0.033 sec (  6.433%)
 iterations                     ...        0 min,  0.275 sec ( 53.356%)
 molecular gradient             ...        0 min,  0.153 sec ( 29.802%)
 printout                       ...        0 min,  0.001 sec (  0.112%)

         :::::::::::::::::::::::::::::::::::::::::::::::::::::
         ::                     SUMMARY                     ::
         :::::::::::::::::::::::::::::::::::::::::::::::::::::
         :: total energy             -27.831257634712 Eh    ::
         :: gradient norm              0.000957201400 Eh/a0 ::
         :: HOMO-LUMO gap              2.248021209979 eV    ::
         ::.................................................::
         :: SCC energy               -28.158733557941 Eh    ::
         :: -> isotropic ES            0.033000020002 Eh    ::
         :: -> anisotropic ES          0.000088823252 Eh    ::
         :: -> anisotropic XC          0.015073234038 Eh    ::
         :: -> dispersion             -0.014357842785 Eh    ::
         :: repulsion energy           0.325982986902 Eh    ::
         :: add. restraining           0.001492936327 Eh    ::
         :: total charge               0.000000000000 e     ::
         :::::::::::::::::::::::::::::::::::::::::::::::::::::

           -------------------------------------------------
          |                Property Printout                |
           -------------------------------------------------

    * Orbital Energies and Occupations

         #    Occupation            Energy/Eh            Energy/eV
      -------------------------------------------------------------
         1        2.0000           -0.7444745             -20.2582
       ...           ...                  ...                  ...
        13        2.0000           -0.5082884             -13.8312
        14        2.0000           -0.5013065             -13.6412
        15        2.0000           -0.4964312             -13.5086
        16        2.0000           -0.4904652             -13.3462
        17        2.0000           -0.4876980             -13.2709
        18        2.0000           -0.4809960             -13.0886
        19        2.0000           -0.4789272             -13.0323
        20        2.0000           -0.4674229             -12.7192
        21        2.0000           -0.4492796             -12.2255
        22        2.0000           -0.4282386             -11.6530
        23        2.0000           -0.3764602             -10.2440
        24        2.0000           -0.3742482             -10.1838
        25        2.0000           -0.3565640              -9.7026 (HOMO)
        26                         -0.2739507              -7.4546 (LUMO)
        27                         -0.2560382              -6.9672
        28                         -0.2470702              -6.7231
        29                         -0.1583438              -4.3088
        30                         -0.1344293              -3.6580
        31                         -0.0216437              -0.5890
        32                          0.0419210               1.1407
        33                          0.0590696               1.6074
        34                          0.0986401               2.6841
        35                          0.1053153               2.8658
        36                          0.1159255               3.1545
       ...                                ...                  ...
        49                          0.8774529              23.8767
      -------------------------------------------------------------
                  HL-Gap            0.0826133 Eh            2.2480 eV
             Fermi-level           -0.3152574 Eh           -8.5786 eV

     #   Z          covCN         q      C6AA      α(0)
     1   6 C        3.754    -0.101    22.489     6.762
     2   6 C        2.588    -0.035    28.883     8.787
     3   6 C        2.889    -0.047    29.174     8.855
     4   6 C        2.838     0.011    27.762     8.635
     5   7 N        1.911    -0.081    23.557     7.196
     6   7 N        2.555    -0.096    23.147     7.145
     7   6 C        3.704    -0.040    21.435     6.619
     8  16 S        2.139     0.354   127.455    19.001
     9   8 O        0.860    -0.422    22.121     6.306
    10   1 H        0.924     0.056     2.242     2.342
    11   1 H        0.924     0.069     2.100     2.266
    12   1 H        0.924     0.054     2.275     2.359
    13   1 H        0.925     0.051     2.304     2.374
    14   1 H        0.925     0.044     2.398     2.421
    15   1 H        0.925     0.064     2.153     2.295
    16   1 H        0.925     0.055     2.262     2.352
    17   1 H        0.924     0.064     2.149     2.292

 Mol. C6AA /au·bohr⁶  :       3952.297820
 Mol. C8AA /au·bohr⁸  :     104289.388326
 Mol. α(0) /au        :         98.007954


Wiberg/Mayer (AO) data.
largest (>0.10) Wiberg bond orders for each atom

 ---------------------------------------------------------------------------
     #   Z sym  total        # sym  WBO       # sym  WBO       # sym  WBO
 ---------------------------------------------------------------------------
     1   6 C    3.996 --     2 C    1.066    10 H    0.962    12 H    0.961
                            11 H    0.960
     2   6 C    3.951 --     3 C    1.813     1 C    1.066     8 S    0.766
                             9 O    0.129
     3   6 C    3.989 --     2 C    1.813     4 C    1.124    13 H    0.925
     4   6 C    3.972 --     5 N    1.611     3 C    1.124    14 H    0.957
                             6 N    0.181
     5   7 N    3.344 --     4 C    1.611     6 N    1.366     8 S    0.174
     6   7 N    3.380 --     5 N    1.366     7 C    1.015     8 S    0.603
                             4 C    0.181     9 O    0.110
     7   6 C    3.974 --     6 N    1.015    16 H    0.978    15 H    0.968
                            17 H    0.961
     8  16 S    3.557 --     9 O    1.822     2 C    0.766     6 N    0.603
                             5 N    0.174
     9   8 O    2.156 --     8 S    1.822     2 C    0.129     6 N    0.110
    10   1 H    0.996 --     1 C    0.962
    11   1 H    0.995 --     1 C    0.960
    12   1 H    0.997 --     1 C    0.961
    13   1 H    0.997 --     3 C    0.925
    14   1 H    0.998 --     4 C    0.957
    15   1 H    0.996 --     7 C    0.968
    16   1 H    0.997 --     7 C    0.978
    17   1 H    0.996 --     7 C    0.961
 ---------------------------------------------------------------------------

Topologies differ in total number of bonds
Writing topology from bond orders to xtbtopo.mol

molecular dipole:
                 x           y           z       tot (Debye)
 q only:       -0.334       0.724      -0.397
   full:       -0.550       0.524      -0.125       1.956
molecular quadrupole (traceless):
                xx          xy          yy          xz          yz          zz
 q only:        7.618       1.928      -8.565       0.076       2.166       0.947
  q+dip:        8.410       0.835      -7.638      -0.281       3.978      -0.772
   full:        8.352       0.614      -8.263       0.055       3.085      -0.089

           -------------------------------------------------
          |                Geometry Summary                 |
           -------------------------------------------------

      molecular mass/u    :      144.1948042
   center of mass at/Å    :        0.2046794      -0.1927426      -0.4642556
  moments of inertia/u·Å² :        0.2798168E+03   0.3727245E+03   0.6081344E+03
rotational constants/cm⁻¹ :        0.6024524E-01   0.4522813E-01   0.2772024E-01

 * 13 selected distances

     #   Z          #   Z                                           value/Å
     2   6 C        3   6 C                                       1.3203375
     4   6 C        5   7 N                                       1.2780859
     5   7 N        6   7 N                                       1.2702339
     6   7 N        7   6 C                                       1.4344651
     8  16 S        9   8 O                                       1.4567775 (max)
     1   6 C       10   1 H                                       1.0905304
     1   6 C       11   1 H                                       1.0903204
     1   6 C       12   1 H                                       1.0911572
     3   6 C       13   1 H                                       1.0887767
     4   6 C       14   1 H                                       1.0815786 (min)
     7   6 C       15   1 H                                       1.0901391
     7   6 C       16   1 H                                       1.0899130
     7   6 C       17   1 H                                       1.0960729

 * 5 distinct bonds (by element types)

   Z      Z             #   av. dist./Å        max./Å        min./Å
   1 H    6 C           8     1.0898110     1.0960729     1.0815786
   6 C    6 C           1     1.3203375     1.3203375     1.3203375
   6 C    7 N           2     1.3562755     1.4344651     1.2780859
   7 N    7 N           1     1.2702339     1.2702339     1.2702339
   8 O   16 S           1     1.4567775     1.4567775     1.4567775


optimized geometry written to: xtbopt.xyz


           -------------------------------------------------
          | TOTAL ENERGY              -27.831257634712 Eh   |
          | GRADIENT NORM               0.000957201400 Eh/α |
          | HOMO-LUMO GAP               2.248021209979 eV   |
           -------------------------------------------------

------------------------------------------------------------------------
 * finished run on 2026/01/15 at 09:09:26.133     
------------------------------------------------------------------------
 total:
 * wall-time:     0 d,  0 h,  1 min, 21.289 sec
 *  cpu-time:     0 d,  0 h,  5 min,  3.857 sec
 * ratio c/w:     3.738 speedup
 SCF:
 * wall-time:     0 d,  0 h,  0 min,  1.370 sec
 *  cpu-time:     0 d,  0 h,  0 min,  5.457 sec
 * ratio c/w:     3.984 speedup
 ANC optimizer:
 * wall-time:     0 d,  0 h,  1 min, 19.720 sec
 *  cpu-time:     0 d,  0 h,  4 min, 57.915 sec
 * ratio c/w:     3.737 speedup

