      -----------------------------------------------------------      
     |                   =====================                   |     
     |                           x T B                           |     
     |                   =====================                   |     
     |                         S. Grimme                         |     
     |          Mulliken Center for Theoretical Chemistry        |     
     |                    University of Bonn                     |     
      -----------------------------------------------------------      

   * xtb version 6.7.1 (edcfbbe) compiled by 'conda@c0858423619e' on 2025-09-04

   xtb is free software: you can redistribute it and/or modify it under
   the terms of the GNU Lesser General Public License as published by
   the Free Software Foundation, either version 3 of the License, or
   (at your option) any later version.
   
   xtb is distributed in the hope that it will be useful,
   but WITHOUT ANY WARRANTY; without even the implied warranty of
   MERCHANTABILITY or FITNESS FOR A PARTICULAR PURPOSE.  See the
   GNU Lesser General Public License for more details.
   
   Cite this work as:
   * C. Bannwarth, E. Caldeweyher, S. Ehlert, A. Hansen, P. Pracht,
     J. Seibert, S. Spicher, S. Grimme, WIREs Comput. Mol. Sci., 2020, 11,
     e01493. DOI: 10.1002/wcms.1493
   
   for GFN2-xTB:
   * C. Bannwarth, S. Ehlert and S. Grimme., J. Chem. Theory Comput., 2019,
     15, 1652-1671. DOI: 10.1021/acs.jctc.8b01176
   for GFN1-xTB:
   * S. Grimme, C. Bannwarth, P. Shushkov, J. Chem. Theory Comput., 2017,
     13, 1989-2009. DOI: 10.1021/acs.jctc.7b00118
   for GFN0-xTB:
   * P. Pracht, E. Caldeweyher, S. Ehlert, S. Grimme, ChemRxiv, 2019, preprint.
     DOI: 10.26434/chemrxiv.8326202.v1
   for GFN-FF:
   * S. Spicher and S. Grimme, Angew. Chem. Int. Ed., 2020, 59, 15665-15673.
     DOI: 10.1002/anie.202004239
   
   for ALPB and GBSA implicit solvation:
   * S. Ehlert, M. Stahn, S. Spicher, S. Grimme, J. Chem. Theory Comput.,
     2021, 17, 4250-4261. DOI: 10.1021/acs.jctc.1c00471
   
   for ddCOSMO and CPCM-X implicit solvation:
   * M. Stahn, S. Ehlert, S. Grimme, J. Phys. Chem. A,
     2023, XX, XXXX-XXXX. DOI: 10.1021/acs.jpca.3c04382
   
   for DFT-D4:
   * E. Caldeweyher, C. Bannwarth and S. Grimme, J. Chem. Phys., 2017,
     147, 034112. DOI: 10.1063/1.4993215
   * E. Caldeweyher, S. Ehlert, A. Hansen, H. Neugebauer, S. Spicher,
     C. Bannwarth and S. Grimme, J. Chem. Phys., 2019, 150, 154122.
     DOI: 10.1063/1.5090222
   * E. Caldeweyher, J.-M. Mewes, S. Ehlert and S. Grimme, Phys. Chem. Chem. Phys.
     2020, 22, 8499-8512. DOI: 10.1039/D0CP00502A
   
   for sTDA-xTB:
   * S. Grimme and C. Bannwarth, J. Chem. Phys., 2016, 145, 054103.
     DOI: 10.1063/1.4959605
   
   in the mass-spec context:
   * V. Asgeirsson, C. Bauer and S. Grimme, Chem. Sci., 2017, 8, 4879.
     DOI: 10.1039/c7sc00601b
   * J. Koopman and S. Grimme, ACS Omega 2019, 4, 12, 15120-15133.
     DOI: 10.1021/acsomega.9b02011
   
   for metadynamics refer to:
   * S. Grimme, J. Chem. Theory Comput., 2019, 155, 2847-2862
     DOI: 10.1021/acs.jctc.9b00143
   
   for SPH calculations refer to:
   * S. Spicher and S. Grimme, J. Chem. Theory Comput., 2021, 17, 1701-1714
     DOI: 10.1021/acs.jctc.0c01306
   
   for ONIOM refer to:
   * C. Plett, A. Katbashev, S. Ehlert, S. Grimme, M. Bursch,
     Phys. Chem. Chem. Phys., 2023, 25, 17860-17868. DOI: 10.1039/D3CP02178E
   
   for DIPRO refer to:
   * J. Kohn, N. Gildemeister, S. Grimme, D. Fazzi, A. Hansen,
     J. Chem. Phys., 2023, just accepted.
   
   for PTB refer to:
   * S. Grimme, M. Mueller, A. Hansen, J. Chem. Phys., 2023, 158, 124111.
     DOI: 10.1063/5.0137838
   
   with help from (in alphabetical order)
   P. Atkinson, C. Bannwarth, F. Bohle, G. Brandenburg, E. Caldeweyher
   M. Checinski, S. Dohm, S. Ehlert, S. Ehrlich, I. Gerasimov, C. Hölzer
   A. Katbashev, J. Kohn, J. Koopman, C. Lavigne, S. Lehtola, F. März, M. Müller,
   F. Musil, H. Neugebauer, J. Pisarek, C. Plett, P. Pracht, F. Pultar,
   J. Seibert, P. Shushkov, S. Spicher, M. Stahn, M. Steiner, T. Strunk,
   J. Stückrath, T. Rose, and J. Unsleber
   
 * started run on 2026/01/15 at 10:06:40.566     
   ID    Z sym.   atoms
    1    6 C      1-4
    2    7 N      5, 6
    3    1 H      7-12

           -------------------------------------------------
          |                Calculation Setup                |
           -------------------------------------------------

          program call               : /h/28/cicsy/miniforge3/envs/elagente/bin/xtb 3-methyl-1H-pyrazole_product.xyz --opt --gfn 2 -P 4 --chrg 0
          coordinate file            : 3-methyl-1H-pyrazole_product.xyz
          omp threads                :                     4


           -------------------------------------------------
          |                 G F N 2 - x T B                 |
           -------------------------------------------------

        Reference                      10.1021/acs.jctc.8b01176
      * Hamiltonian:
        H0-scaling (s, p, d)           1.850000    2.230000    2.230000
        zeta-weighting                 0.500000
      * Dispersion:
        s8                             2.700000
        a1                             0.520000
        a2                             5.000000
        s9                             5.000000
      * Repulsion:
        kExp                           1.500000    1.000000
        rExp                           1.000000
      * Coulomb:
        alpha                          2.000000
        third order                    shell-resolved
        anisotropic                    true
        a3                             3.000000
        a5                             4.000000
        cn-shift                       1.200000
        cn-exp                         4.000000
        max-rad                        5.000000


          ...................................................
          :                      SETUP                      :
          :.................................................:
          :  # basis functions                  30          :
          :  # atomic orbitals                  30          :
          :  # shells                           18          :
          :  # electrons                        32          :
          :  max. iterations                   250          :
          :  Hamiltonian                  GFN2-xTB          :
          :  restarted?                      false          :
          :  GBSA solvation                  false          :
          :  PC potential                    false          :
          :  electronic temp.          300.0000000     K    :
          :  accuracy                    1.0000000          :
          :  -> integral cutoff          0.2500000E+02      :
          :  -> integral neglect         0.1000000E-07      :
          :  -> SCF convergence          0.1000000E-05 Eh   :
          :  -> wf. convergence          0.1000000E-03 e    :
          :  Broyden damping             0.4000000          :
          :  net charge                          0          :
          :  unpaired electrons                  0          :
          ...................................................

 iter      E             dE          RMSdq      gap      omega  full diag
   1    -17.6344387 -0.176344E+02  0.345E+00    5.33       0.0  T
   2    -17.6809472 -0.465085E-01  0.255E+00    4.90       1.0  T
   3    -17.6888631 -0.791594E-02  0.142E+00    4.85       1.0  T
   4    -17.6885707  0.292398E-03  0.463E-01    4.76       1.0  T
   5    -17.6897431 -0.117238E-02  0.105E-01    4.73       1.0  T
   6    -17.6897548 -0.116883E-04  0.465E-02    4.71       1.0  T
   7    -17.6897657 -0.108827E-04  0.191E-02    4.72       1.5  T
   8    -17.6897661 -0.372167E-06  0.662E-03    4.72       4.4  T
   9    -17.6897663 -0.251036E-06  0.216E-03    4.72      13.4  T
  10    -17.6897663 -0.842787E-08  0.102E-03    4.72      28.4  T
  11    -17.6897663 -0.557827E-08  0.188E-04    4.72     153.3  T
  12    -17.6897663 -0.107526E-09  0.633E-05    4.72     456.3  T

   *** convergence criteria satisfied after 12 iterations ***

         #    Occupation            Energy/Eh            Energy/eV
      -------------------------------------------------------------
         1        2.0000           -0.6866943             -18.6859
       ...           ...                  ...                  ...
        10        2.0000           -0.4767550             -12.9732
        11        2.0000           -0.4733342             -12.8801
        12        2.0000           -0.4576934             -12.4545
        13        2.0000           -0.4409078             -11.9977
        14        2.0000           -0.3971263             -10.8064
        15        2.0000           -0.3869825             -10.5303
        16        2.0000           -0.3796938             -10.3320 (HOMO)
        17                         -0.2062055              -5.6111 (LUMO)
        18                         -0.1484812              -4.0404
        19                         -0.0139686              -0.3801
        20                          0.1034253               2.8143
        21                          0.1337449               3.6394
       ...                                ...                  ...
        30                          0.6700947              18.2342
      -------------------------------------------------------------
                  HL-Gap            0.1734883 Eh            4.7209 eV
             Fermi-level           -0.2929497 Eh           -7.9716 eV

 SCC (total)                   0 d,  0 h,  0 min,  0.568 sec
 SCC setup                      ...        0 min,  0.013 sec (  2.374%)
 Dispersion                     ...        0 min,  0.032 sec (  5.700%)
 classical contributions        ...        0 min,  0.009 sec (  1.556%)
 integral evaluation            ...        0 min,  0.039 sec (  6.837%)
 iterations                     ...        0 min,  0.474 sec ( 83.315%)
 molecular gradient             ...        0 min,  0.001 sec (  0.144%)
 printout                       ...        0 min,  0.000 sec (  0.068%)

         :::::::::::::::::::::::::::::::::::::::::::::::::::::
         ::                     SUMMARY                     ::
         :::::::::::::::::::::::::::::::::::::::::::::::::::::
         :: total energy             -17.444408802305 Eh    ::
         :: gradient norm              0.061864744239 Eh/a0 ::
         :: HOMO-LUMO gap              4.720857291624 eV    ::
         ::.................................................::
         :: SCC energy               -17.689761608661 Eh    ::
         :: -> isotropic ES            0.011050623500 Eh    ::
         :: -> anisotropic ES          0.003901974698 Eh    ::
         :: -> anisotropic XC          0.016420066332 Eh    ::
         :: -> dispersion             -0.007195334474 Eh    ::
         :: repulsion energy           0.245352806357 Eh    ::
         :: add. restraining           0.000000000000 Eh    ::
         :: total charge              -0.000000000000 e     ::
         :::::::::::::::::::::::::::::::::::::::::::::::::::::

      ----------------------------------------------------------- 
     |                   =====================                   |
     |                        A N C O P T                        |
     |                   =====================                   |
     |               Approximate Normal Coordinate               |
     |                Rational Function Optimizer                |
      ----------------------------------------------------------- 
      ----------------------------------------------------------- 
     |                   =====================                   |
     |                        A N C O P T                        |
     |                   =====================                   |
     |               Approximate Normal Coordinate               |
     |                Rational Function Optimizer                |
      ----------------------------------------------------------- 

          ...................................................
          :                      SETUP                      :
          :.................................................:
          :   optimization level            normal          :
          :   max. optcycles                   200          :
          :   ANC micro-cycles                  20          :
          :   degrees of freedom                30          :
          :.................................................:
          :   RF solver                   davidson          :
          :   write xtbopt.log                true          :
          :   linear?                        false          :
          :   energy convergence         0.5000000E-05 Eh   :
          :   grad. convergence          0.1000000E-02 Eh/α :
          :   maxmium RF displ.          1.0000000          :
          :   Hlow (freq-cutoff)         0.1000000E-01      :
          :   Hmax (freq-cutoff)         5.0000000          :
          :   S6 in model hess.         20.0000000          :
          ...................................................

generating ANC from exact Hessian ...
Using Lindh-Hessian (1995)
 Shifting diagonal of input Hessian by    9.7910493663739412E-004
 Lowest  eigenvalues of input Hessian
    0.000000    0.000000    0.000000    0.000000    0.000000    0.000000
    0.010000    0.011207    0.023168    0.026172    0.052249    0.054767
    0.070823    0.079430    0.104346    0.107517    0.118779    0.126350
 Highest eigenvalues
    1.127104    1.557015    1.842506    1.856668    2.042020    2.108063


........................................................................
.............................. CYCLE    1 ..............................
........................................................................

 iter      E             dE          RMSdq      gap      omega  full diag
   1    -17.6897663 -0.176898E+02  0.136E-05    4.72       0.0  T
   2    -17.6897663 -0.117240E-12  0.763E-06    4.72    3781.0  T
   3    -17.6897663  0.426326E-13  0.369E-06    4.72    7813.5  T
     SCC iter.                  ...        0 min,  0.005 sec
     gradient                   ...        0 min,  0.001 sec
 * total energy  :   -17.4444088 Eh     change       -0.2390976E-11 Eh
   gradient norm :     0.0618648 Eh/α   predicted     0.0000000E+00 (-100.00%)
   displ. norm   :     0.2015996 α      lambda       -0.7635441E-02
   maximum displ.:     0.1173844 α      in ANC's #17, #3, #7, ...

........................................................................
.............................. CYCLE    2 ..............................
........................................................................

 iter      E             dE          RMSdq      gap      omega  full diag
   1    -17.7064145 -0.177064E+02  0.321E-01    4.80       0.0  T
   2    -17.7064893 -0.747898E-04  0.176E-01    4.83       1.0  T
   3    -17.7064874  0.195679E-05  0.529E-02    4.82       1.0  T
   4    -17.7064970 -0.966432E-05  0.151E-02    4.83       1.9  T
   5    -17.7064982 -0.116184E-05  0.590E-03    4.83       4.9  T
   6    -17.7064982 -0.299497E-08  0.215E-03    4.83      13.4  T
   7    -17.7064982 -0.249673E-07  0.531E-04    4.83      54.4  T
   8    -17.7064982 -0.415916E-09  0.163E-04    4.83     176.6  T
     SCC iter.                  ...        0 min,  0.046 sec
     gradient                   ...        0 min,  0.001 sec
 * total energy  :   -17.4491919 Eh     change       -0.4783080E-02 Eh
   gradient norm :     0.0208352 Eh/α   predicted    -0.3972880E-02 ( -16.94%)
   displ. norm   :     0.1187533 α      lambda       -0.9971345E-03
   maximum displ.:     0.0809858 α      in ANC's #3, #1, #2, ...

........................................................................
.............................. CYCLE    3 ..............................
........................................................................

 iter      E             dE          RMSdq      gap      omega  full diag
   1    -17.7113889 -0.177114E+02  0.135E-01    4.85       0.0  T
   2    -17.7114021 -0.132230E-04  0.735E-02    4.86       1.0  T
   3    -17.7114014  0.679801E-06  0.229E-02    4.86       1.3  T
   4    -17.7114031 -0.170592E-05  0.706E-03    4.86       4.1  T
   5    -17.7114035 -0.320257E-06  0.221E-03    4.86      13.0  T
   6    -17.7114035  0.125628E-09  0.723E-04    4.86      39.9  T
   7    -17.7114035 -0.333441E-08  0.140E-04    4.86     205.6  T
     SCC iter.                  ...        0 min,  0.064 sec
     gradient                   ...        0 min,  0.001 sec
 * total energy  :   -17.4497647 Eh     change       -0.5727991E-03 Eh
   gradient norm :     0.0073018 Eh/α   predicted    -0.5055976E-03 ( -11.73%)
   displ. norm   :     0.0551162 α      lambda       -0.1452707E-03
   maximum displ.:     0.0371615 α      in ANC's #3, #1, #10, ...

........................................................................
.............................. CYCLE    4 ..............................
........................................................................

 iter      E             dE          RMSdq      gap      omega  full diag
   1    -17.7111953 -0.177112E+02  0.588E-02    4.86       0.0  T
   2    -17.7111965 -0.122074E-05  0.318E-02    4.86       1.0  T
   3    -17.7111965  0.742820E-07  0.866E-03    4.86       3.3  T
   4    -17.7111967 -0.207241E-06  0.185E-03    4.86      15.6  T
   5    -17.7111967 -0.192852E-07  0.742E-04    4.86      38.9  T
   6    -17.7111967 -0.732108E-10  0.293E-04    4.86      98.5  T
     SCC iter.                  ...        0 min,  0.233 sec
     gradient                   ...        0 min,  0.081 sec
 * total energy  :   -17.4498653 Eh     change       -0.1006041E-03 Eh
   gradient norm :     0.0043918 Eh/α   predicted    -0.7285679E-04 ( -27.58%)
   displ. norm   :     0.0561462 α      lambda       -0.6654994E-04
   maximum displ.:     0.0471312 α      in ANC's #1, #3, #10, ...

........................................................................
.............................. CYCLE    5 ..............................
........................................................................

 iter      E             dE          RMSdq      gap      omega  full diag
   1    -17.7106998 -0.177107E+02  0.502E-02    4.86       0.0  T
   2    -17.7107009 -0.112872E-05  0.275E-02    4.86       1.0  T
   3    -17.7107007  0.236099E-06  0.102E-02    4.86       2.8  T
   4    -17.7107012 -0.477464E-06  0.140E-03    4.86      20.6  T
   5    -17.7107012 -0.496434E-08  0.677E-04    4.86      42.7  T
   6    -17.7107012 -0.536556E-09  0.313E-04    4.86      92.1  T
     SCC iter.                  ...        0 min,  0.009 sec
     gradient                   ...        0 min,  0.001 sec
 * total energy  :   -17.4499035 Eh     change       -0.3821414E-04 Eh
   gradient norm :     0.0014771 Eh/α   predicted    -0.3337957E-04 ( -12.65%)
   displ. norm   :     0.0493489 α      lambda       -0.1152899E-04
   maximum displ.:     0.0363822 α      in ANC's #1, #2, #3, ...

........................................................................
.............................. CYCLE    6 ..............................
........................................................................

 iter      E             dE          RMSdq      gap      omega  full diag
   1    -17.7107046 -0.177107E+02  0.241E-02    4.86       0.0  T
   2    -17.7107050 -0.392064E-06  0.140E-02    4.85       2.1  T
   3    -17.7107050  0.601817E-07  0.581E-03    4.86       5.0  T
   4    -17.7107051 -0.163991E-06  0.789E-04    4.85      36.6  T
   5    -17.7107051 -0.166406E-08  0.414E-04    4.85      69.7  T
     SCC iter.                  ...        0 min,  0.130 sec
     gradient                   ...        0 min,  0.026 sec
 * total energy  :   -17.4499147 Eh     change       -0.1115597E-04 Eh
   gradient norm :     0.0012967 Eh/α   predicted    -0.5771149E-05 ( -48.27%)
   displ. norm   :     0.0608190 α      lambda       -0.1054721E-04
   maximum displ.:     0.0513685 α      in ANC's #1, #2, #3, ...

........................................................................
.............................. CYCLE    7 ..............................
........................................................................

 iter      E             dE          RMSdq      gap      omega  full diag
   1    -17.7107100 -0.177107E+02  0.236E-02    4.85       0.0  T
   2    -17.7107101 -0.106004E-06  0.141E-02    4.85       2.0  T
   3    -17.7107100  0.885894E-07  0.392E-03    4.85       7.4  T
   4    -17.7107102 -0.124637E-06  0.609E-04    4.85      47.4  T
   5    -17.7107102 -0.528200E-09  0.325E-04    4.85      88.8  T
     SCC iter.                  ...        0 min,  0.185 sec
     gradient                   ...        0 min,  0.101 sec
 * total energy  :   -17.4499280 Eh     change       -0.1332725E-04 Eh
   gradient norm :     0.0019408 Eh/α   predicted    -0.5282903E-05 ( -60.36%)
   displ. norm   :     0.0694419 α      lambda       -0.1243318E-04
   maximum displ.:     0.0571245 α      in ANC's #1, #2, #8, ...

........................................................................
.............................. CYCLE    8 ..............................
........................................................................

 iter      E             dE          RMSdq      gap      omega  full diag
   1    -17.7107680 -0.177108E+02  0.275E-02    4.85       0.0  T
   2    -17.7107681 -0.806779E-07  0.162E-02    4.86       1.8  T
   3    -17.7107681  0.121596E-07  0.218E-03    4.86      13.2  T
   4    -17.7107681 -0.410346E-07  0.719E-04    4.86      40.1  T
   5    -17.7107681 -0.454143E-10  0.257E-04    4.86     112.4  T
     SCC iter.                  ...        0 min,  0.201 sec
     gradient                   ...        0 min,  0.114 sec
 * total energy  :   -17.4499439 Eh     change       -0.1592688E-04 Eh
   gradient norm :     0.0014346 Eh/α   predicted    -0.6229413E-05 ( -60.89%)
   displ. norm   :     0.1043954 α      lambda       -0.1696980E-04
   maximum displ.:     0.0938830 α      in ANC's #1, #2, #8, ...

........................................................................
.............................. CYCLE    9 ..............................
........................................................................

 iter      E             dE          RMSdq      gap      omega  full diag
   1    -17.7106044 -0.177106E+02  0.393E-02    4.86       0.0  T
   2    -17.7106045 -0.163773E-06  0.232E-02    4.86       1.2  T
   3    -17.7106045  0.358373E-07  0.307E-03    4.86       9.4  T
   4    -17.7106046 -0.869804E-07  0.886E-04    4.86      32.6  T
   5    -17.7106046 -0.423842E-09  0.193E-04    4.86     149.2  T
     SCC iter.                  ...        0 min,  0.003 sec
     gradient                   ...        0 min,  0.020 sec
 * total energy  :   -17.4499665 Eh     change       -0.2255612E-04 Eh
   gradient norm :     0.0011467 Eh/α   predicted    -0.8525217E-05 ( -62.20%)
   displ. norm   :     0.1027496 α      lambda       -0.1647079E-04
   maximum displ.:     0.0939091 α      in ANC's #1, #2, #8, ...

........................................................................
.............................. CYCLE   10 ..............................
........................................................................

 iter      E             dE          RMSdq      gap      omega  full diag
   1    -17.7106432 -0.177106E+02  0.380E-02    4.86       0.0  T
   2    -17.7106434 -0.128219E-06  0.224E-02    4.86       1.3  T
   3    -17.7106434  0.148836E-07  0.278E-03    4.86      10.4  T
   4    -17.7106434 -0.597701E-07  0.920E-04    4.86      31.4  T
   5    -17.7106434 -0.189406E-09  0.318E-04    4.86      90.7  T
     SCC iter.                  ...        0 min,  0.136 sec
     gradient                   ...        0 min,  0.033 sec
 * total energy  :   -17.4499887 Eh     change       -0.2227437E-04 Eh
   gradient norm :     0.0011520 Eh/α   predicted    -0.8275106E-05 ( -62.85%)
   displ. norm   :     0.1315205 α      lambda       -0.1919079E-04
   maximum displ.:     0.1204469 α      in ANC's #1, #2, #17, ...

........................................................................
.............................. CYCLE   11 ..............................
........................................................................

 iter      E             dE          RMSdq      gap      omega  full diag
   1    -17.7105316 -0.177105E+02  0.472E-02    4.86       0.0  T
   2    -17.7105318 -0.151986E-06  0.278E-02    4.86       1.0  T
   3    -17.7105318 -0.218430E-07  0.259E-03    4.86      11.2  T
   4    -17.7105318 -0.346415E-07  0.118E-03    4.86      24.4  T
   5    -17.7105318 -0.202772E-08  0.358E-04    4.86      80.7  T
   6    -17.7105318 -0.309210E-09  0.844E-05    4.86     342.2  T
     SCC iter.                  ...        0 min,  0.036 sec
     gradient                   ...        0 min,  0.001 sec
 * total energy  :   -17.4500132 Eh     change       -0.2446465E-04 Eh
   gradient norm :     0.0013837 Eh/α   predicted    -0.9669242E-05 ( -60.48%)
   displ. norm   :     0.3677450 α      lambda       -0.4421240E-04
   maximum displ.:     0.3381366 α      in ANC's #1, #2, #17, ...

........................................................................
.............................. CYCLE   12 ..............................
........................................................................

 iter      E             dE          RMSdq      gap      omega  full diag
   1    -17.7083428 -0.177083E+02  0.140E-01    4.87       0.0  T
   2    -17.7083452 -0.234711E-05  0.820E-02    4.87       1.0  T
   3    -17.7083455 -0.356410E-06  0.743E-03    4.87       3.9  T
   4    -17.7083457 -0.147869E-06  0.373E-03    4.87       7.7  T
   5    -17.7083457 -0.292142E-07  0.179E-03    4.87      16.1  T
   6    -17.7083457 -0.721101E-08  0.275E-04    4.87     104.9  T
   7    -17.7083457 -0.658282E-10  0.128E-04    4.87     226.0  T
     SCC iter.                  ...        0 min,  0.022 sec
     gradient                   ...        0 min,  0.125 sec
 * total energy  :   -17.4499980 Eh     change        0.1518302E-04 Eh
   gradient norm :     0.0069421 Eh/α   predicted    -0.2343597E-04 (-254.36%)
   displ. norm   :     0.1103906 α      lambda       -0.1087404E-03
   maximum displ.:     0.0981991 α      in ANC's #1, #2, #8, ...

........................................................................
.............................. CYCLE   13 ..............................
........................................................................

 iter      E             dE          RMSdq      gap      omega  full diag
   1    -17.7106182 -0.177106E+02  0.512E-02    4.87       0.0  T
   2    -17.7106195 -0.128778E-05  0.292E-02    4.87       1.0  T
   3    -17.7106196 -0.700448E-07  0.606E-03    4.87       4.8  T
   4    -17.7106196 -0.372231E-07  0.192E-03    4.87      15.1  T
   5    -17.7106196 -0.119123E-07  0.992E-04    4.87      29.1  T
   6    -17.7106196 -0.235150E-08  0.200E-04    4.87     144.1  T
     SCC iter.                  ...        0 min,  0.260 sec
     gradient                   ...        0 min,  0.110 sec
 * total energy  :   -17.4500492 Eh     change       -0.5117667E-04 Eh
   gradient norm :     0.0013937 Eh/α   predicted    -0.5503242E-04 (   7.53%)
   displ. norm   :     0.0595211 α      lambda       -0.8144531E-05
   maximum displ.:     0.0476910 α      in ANC's #1, #2, #17, ...

........................................................................
.............................. CYCLE   14 ..............................
........................................................................

 iter      E             dE          RMSdq      gap      omega  full diag
   1    -17.7109370 -0.177109E+02  0.224E-02    4.87       0.0  T
   2    -17.7109370 -0.557725E-07  0.132E-02    4.87       2.2  T
   3    -17.7109370  0.769830E-08  0.162E-03    4.87      17.8  T
   4    -17.7109370 -0.229161E-07  0.635E-04    4.87      45.5  T
   5    -17.7109370 -0.118051E-08  0.263E-04    4.87     109.6  T
     SCC iter.                  ...        0 min,  0.203 sec
     gradient                   ...        0 min,  0.112 sec
 * total energy  :   -17.4500582 Eh     change       -0.8962030E-05 Eh
   gradient norm :     0.0008165 Eh/α   predicted    -0.4079596E-05 ( -54.48%)
   displ. norm   :     0.1901100 α      lambda       -0.1449894E-04
   maximum displ.:     0.1659255 α      in ANC's #1, #2, #17, ...

........................................................................
.............................. CYCLE   15 ..............................
........................................................................

 iter      E             dE          RMSdq      gap      omega  full diag
   1    -17.7104812 -0.177105E+02  0.692E-02    4.87       0.0  T
   2    -17.7104816 -0.377993E-06  0.408E-02    4.87       1.0  T
   3    -17.7104817 -0.888077E-07  0.318E-03    4.87       9.1  T
   4    -17.7104817 -0.376766E-07  0.163E-03    4.87      17.7  T
   5    -17.7104817 -0.311134E-08  0.488E-04    4.87      59.2  T
   6    -17.7104817 -0.774353E-09  0.114E-04    4.87     254.1  T
     SCC iter.                  ...        0 min,  0.080 sec
     gradient                   ...        0 min,  0.004 sec
 * total energy  :   -17.4500706 Eh     change       -0.1241400E-04 Eh
   gradient norm :     0.0016875 Eh/α   predicted    -0.7365828E-05 ( -40.67%)
   displ. norm   :     0.0473089 α      lambda       -0.6488766E-05
   maximum displ.:     0.0405717 α      in ANC's #1, #2, #17, ...

........................................................................
.............................. CYCLE   16 ..............................
........................................................................

 iter      E             dE          RMSdq      gap      omega  full diag
   1    -17.7108922 -0.177109E+02  0.211E-02    4.87       0.0  T
   2    -17.7108922 -0.934921E-07  0.123E-02    4.87       2.3  T
   3    -17.7108922  0.376909E-07  0.271E-03    4.87      10.6  T
   4    -17.7108923 -0.531752E-07  0.779E-04    4.87      37.0  T
   5    -17.7108923 -0.310383E-08  0.298E-04    4.87      97.0  T
     SCC iter.                  ...        0 min,  0.055 sec
     gradient                   ...        0 min,  0.001 sec
 * total energy  :   -17.4500764 Eh     change       -0.5814916E-05 Eh
   gradient norm :     0.0005233 Eh/α   predicted    -0.3246204E-05 ( -44.17%)
   displ. norm   :     0.1035173 α      lambda       -0.3172177E-05
   maximum displ.:     0.0906838 α      in ANC's #1, #2, #17, ...

........................................................................
.............................. CYCLE   17 ..............................
........................................................................

 iter      E             dE          RMSdq      gap      omega  full diag
   1    -17.7106424 -0.177106E+02  0.380E-02    4.87       0.0  T
   2    -17.7106425 -0.936498E-07  0.225E-02    4.87       1.3  T
   3    -17.7106425 -0.209097E-07  0.165E-03    4.87      17.5  T
   4    -17.7106425 -0.987945E-08  0.849E-04    4.87      34.0  T
   5    -17.7106425 -0.143815E-08  0.308E-04    4.87      93.6  T
     SCC iter.                  ...        0 min,  0.038 sec
     gradient                   ...        0 min,  0.001 sec
 * total energy  :   -17.4500782 Eh     change       -0.1839147E-05 Eh
   gradient norm :     0.0011161 Eh/α   predicted    -0.1592921E-05 ( -13.39%)
   displ. norm   :     0.0054872 α      lambda       -0.2408055E-05
   maximum displ.:     0.0028785 α      in ANC's #17, #2, #4, ...

........................................................................
.............................. CYCLE   18 ..............................
........................................................................

 iter      E             dE          RMSdq      gap      omega  full diag
   1    -17.7111254 -0.177111E+02  0.695E-03    4.87       0.0  T
   2    -17.7111254 -0.462745E-07  0.379E-03    4.87       7.6  T
   3    -17.7111254 -0.156383E-08  0.124E-03    4.87      23.2  T
   4    -17.7111254 -0.150239E-08  0.342E-04    4.87      84.4  T
   5    -17.7111254 -0.523936E-09  0.164E-04    4.87     175.6  T
     SCC iter.                  ...        0 min,  0.004 sec
     gradient                   ...        0 min,  0.017 sec
 * total energy  :   -17.4500795 Eh     change       -0.1316850E-05 Eh
   gradient norm :     0.0004725 Eh/α   predicted    -0.1204248E-05 (  -8.55%)
   displ. norm   :     0.0254597 α      lambda       -0.8827640E-06
   maximum displ.:     0.0209212 α      in ANC's #1, #2, #17, ...

   *** GEOMETRY OPTIMIZATION CONVERGED AFTER 18 ITERATIONS ***

------------------------------------------------------------------------
 total energy gain   :        -0.0056707 Eh       -3.5584 kcal/mol
 total RMSD          :         0.3833074 a0        0.2028 Å
 total power (kW/mol):        -0.8271408 (step)   -4.9194 (real)
------------------------------------------------------------------------

 ANCopt (total)                0 d,  0 h,  0 min,  3.027 sec
 optimizer setup                ...        0 min,  0.000 sec (  0.012%)
 model hessian                  ...        0 min,  0.001 sec (  0.031%)
 ANC generation                 ...        0 min,  0.000 sec (  0.013%)
 coordinate transformation      ...        0 min,  0.000 sec (  0.004%)
 single point calculation       ...        0 min,  2.914 sec ( 96.280%)
 optimization log               ...        0 min,  0.006 sec (  0.193%)
 hessian update                 ...        0 min,  0.088 sec (  2.915%)
 rational function              ...        0 min,  0.003 sec (  0.106%)

================
 final structure:
================
12
 xtb: 6.7.1 (edcfbbe)
C            1.89578214808481       -0.16503664695789        0.11737130927610
C            0.41385628353318       -0.13514683718540        0.00348807478429
C           -0.44379397285482        0.97085890707994        0.17598112278328
C           -1.70686877370977        0.47701379925472       -0.03357652134896
N           -1.56267717366361       -0.83574023523456       -0.30896084098815
N           -0.28633319227808       -1.21653691317743       -0.28836405544770
H            2.34470651985864        0.53221672486401       -0.58874503879519
H            2.25547458328925       -1.16764651337622       -0.09226859109665
H            2.20449313213278        0.12361398866431        1.12135783122358
H           -0.16473060607089        1.97585834109195        0.41688142655039
H           -2.66781594810757        0.95018455489525       -0.00806775828794
H           -2.28209400021399       -1.50964116991885       -0.51509595865303

 Bond Distances (Angstroems)
 ---------------------------
C1-C2=1.4866         C1-H7=1.0892         C1-H8=1.0856         C1-H9=1.0893         C2-C1=1.4866         C2-C3=1.4102         
C2-N6=1.3209         C3-C2=1.4102         C3-C4=1.3723         C3-H10=1.0705        C4-C3=1.3723         C4-N5=1.3491         
C4-H11=1.0714        N5-C4=1.3491         N5-N6=1.3321         N5-H12=1.0071        N6-C2=1.3209         N6-N5=1.3321         
H7-C1=1.0892         H8-C1=1.0856         H9-C1=1.0893         H10-C3=1.0705        H11-C4=1.0714        H12-N5=1.0071        
 C  H  Rav=1.0812 sigma=0.0085  Rmin=1.0705  Rmax=1.0893     5
 C  C  Rav=1.4230 sigma=0.0475  Rmin=1.3723  Rmax=1.4866     3
 N  H  Rav=1.0071 sigma=0.0000  Rmin=1.0071  Rmax=1.0071     1
 N  C  Rav=1.3350 sigma=0.0141  Rmin=1.3209  Rmax=1.3491     2
 N  N  Rav=1.3321 sigma=0.0000  Rmin=1.3321  Rmax=1.3321     1

 selected bond angles (degree)
 --------------------
H7-C1-C2=110.39                H8-C1-C2=109.52                H8-C1-H7=109.24                H9-C1-C2=110.35                
H9-C1-H7=108.12                H9-C1-H8=109.20                C3-C2-C1=127.78                N6-C2-C1=121.93                
N6-C2-C3=110.29                C4-C3-C2=105.00                H10-C3-C2=127.25               H10-C3-C4=127.75               
N5-C4-C3=106.44                H11-C4-C3=131.52               H11-C4-N5=122.04               N6-N5-C4=112.17                
H12-N5-C4=128.07               H12-N5-N6=119.76               N5-N6-C2=106.10                

 selected dihedral angles (degree)
 ---------------------------------
C3-C2-C1-H7=301.36            C3-C2-C1-H8=181.05            C3-C2-C1-H9= 60.82            N6-C2-C1-H7=121.45            
N6-C2-C1-H8=  1.15            N6-C2-C1-H9=240.91            C4-C3-C2-C1=180.05            C4-C3-C2-N6=359.97            
H10-C3-C2-C1=  0.12           H10-C3-C2-N6=180.04           N5-C4-C3-C2=  0.00            N5-C4-C3-H10=179.92           
H11-C4-C3-C2=180.03           H11-C4-C3-H10=359.96          N6-N5-C4-C3=  0.05            N6-N5-C4-H11=180.01           
H12-N5-C4-C3=180.07           H12-N5-C4-H11=  0.03          N5-N6-C2-C1=179.99            N5-N6-C2-C3=  0.06            
C2-N6-N5-C4=359.93            C2-N6-N5-H12=179.92           
           -------------------------------------------------
          |                Final Singlepoint                |
           -------------------------------------------------

          ...................................................
          :                      SETUP                      :
          :.................................................:
          :  # basis functions                  30          :
          :  # atomic orbitals                  30          :
          :  # shells                           18          :
          :  # electrons                        32          :
          :  max. iterations                   250          :
          :  Hamiltonian                  GFN2-xTB          :
          :  restarted?                      false          :
          :  GBSA solvation                  false          :
          :  PC potential                    false          :
          :  electronic temp.          300.0000000     K    :
          :  accuracy                    1.0000000          :
          :  -> integral cutoff          0.2500000E+02      :
          :  -> integral neglect         0.1000000E-07      :
          :  -> SCF convergence          0.1000000E-05 Eh   :
          :  -> wf. convergence          0.1000000E-03 e    :
          :  Broyden damping             0.4000000          :
          :  net charge                          0          :
          :  unpaired electrons                  0          :
          ...................................................

 iter      E             dE          RMSdq      gap      omega  full diag
   1    -17.7111254 -0.177111E+02  0.528E-05    4.87       0.0  T
   2    -17.7111254 -0.779465E-11  0.292E-05    4.87     989.2  T
   3    -17.7111254 -0.315481E-11  0.172E-05    4.87    1673.6  T

   *** convergence criteria satisfied after 3 iterations ***

         #    Occupation            Energy/Eh            Energy/eV
      -------------------------------------------------------------
         1        2.0000           -0.6857582             -18.6604
       ...           ...                  ...                  ...
        10        2.0000           -0.4778569             -13.0031
        11        2.0000           -0.4720018             -12.8438
        12        2.0000           -0.4572977             -12.4437
        13        2.0000           -0.4453989             -12.1199
        14        2.0000           -0.3959329             -10.7739
        15        2.0000           -0.3898340             -10.6079
        16        2.0000           -0.3834637             -10.4346 (HOMO)
        17                         -0.2045296              -5.5655 (LUMO)
        18                         -0.1509190              -4.1067
        19                          0.0200077               0.5444
        20                          0.1177553               3.2043
        21                          0.1366915               3.7196
       ...                                ...                  ...
        30                          0.6765642              18.4102
      -------------------------------------------------------------
                  HL-Gap            0.1789341 Eh            4.8690 eV
             Fermi-level           -0.2939967 Eh           -8.0001 eV

 SCC (total)                   0 d,  0 h,  0 min,  0.216 sec
 SCC setup                      ...        0 min,  0.016 sec (  7.243%)
 Dispersion                     ...        0 min,  0.022 sec ( 10.411%)
 classical contributions        ...        0 min,  0.006 sec (  2.999%)
 integral evaluation            ...        0 min,  0.026 sec ( 11.843%)
 iterations                     ...        0 min,  0.075 sec ( 34.572%)
 molecular gradient             ...        0 min,  0.071 sec ( 32.868%)
 printout                       ...        0 min,  0.000 sec (  0.054%)

         :::::::::::::::::::::::::::::::::::::::::::::::::::::
         ::                     SUMMARY                     ::
         :::::::::::::::::::::::::::::::::::::::::::::::::::::
         :: total energy             -17.450079545402 Eh    ::
         :: gradient norm              0.000472658463 Eh/a0 ::
         :: HOMO-LUMO gap              4.869045634800 eV    ::
         ::.................................................::
         :: SCC energy               -17.711120751228 Eh    ::
         :: -> isotropic ES            0.010879626751 Eh    ::
         :: -> anisotropic ES          0.003256115532 Eh    ::
         :: -> anisotropic XC          0.015474649577 Eh    ::
         :: -> dispersion             -0.007193879050 Eh    ::
         :: repulsion energy           0.261041205826 Eh    ::
         :: add. restraining           0.000000000000 Eh    ::
         :: total charge               0.000000000000 e     ::
         :::::::::::::::::::::::::::::::::::::::::::::::::::::

           -------------------------------------------------
          |                Property Printout                |
           -------------------------------------------------

    * Orbital Energies and Occupations

         #    Occupation            Energy/Eh            Energy/eV
      -------------------------------------------------------------
         1        2.0000           -0.6857582             -18.6604
       ...           ...                  ...                  ...
         4        2.0000           -0.5991362             -16.3033
         5        2.0000           -0.5719579             -15.5638
         6        2.0000           -0.5525530             -15.0357
         7        2.0000           -0.5403216             -14.7029
         8        2.0000           -0.5323299             -14.4854
         9        2.0000           -0.4896218             -13.3233
        10        2.0000           -0.4778569             -13.0031
        11        2.0000           -0.4720018             -12.8438
        12        2.0000           -0.4572977             -12.4437
        13        2.0000           -0.4453989             -12.1199
        14        2.0000           -0.3959329             -10.7739
        15        2.0000           -0.3898340             -10.6079
        16        2.0000           -0.3834637             -10.4346 (HOMO)
        17                         -0.2045296              -5.5655 (LUMO)
        18                         -0.1509190              -4.1067
        19                          0.0200077               0.5444
        20                          0.1177553               3.2043
        21                          0.1366915               3.7196
        22                          0.1846803               5.0254
        23                          0.1884337               5.1275
        24                          0.2119842               5.7684
        25                          0.2309147               6.2835
        26                          0.2367577               6.4425
        27                          0.2992428               8.1428
       ...                                ...                  ...
        30                          0.6765642              18.4102
      -------------------------------------------------------------
                  HL-Gap            0.1789341 Eh            4.8690 eV
             Fermi-level           -0.2939967 Eh           -8.0001 eV

     #   Z          covCN         q      C6AA      α(0)
     1   6 C        3.755    -0.111    22.673     6.789
     2   6 C        3.158     0.073    26.076     8.349
     3   6 C        3.030    -0.080    29.979     8.981
     4   6 C        3.009    -0.008    28.199     8.711
     5   7 N        3.000     0.003    21.210     6.840
     6   7 N        2.001    -0.235    26.954     7.700
     7   1 H        0.925     0.045     2.384     2.414
     8   1 H        0.925     0.055     2.253     2.347
     9   1 H        0.925     0.045     2.381     2.413
    10   1 H        0.926     0.024     2.668     2.554
    11   1 H        0.926     0.030     2.584     2.514
    12   1 H        0.860     0.159     1.343     1.815

 Mol. C6AA /au·bohr⁶  :       1551.249535
 Mol. C8AA /au·bohr⁸  :      35379.849439
 Mol. α(0) /au        :         61.428391


Wiberg/Mayer (AO) data.
largest (>0.10) Wiberg bond orders for each atom

 ---------------------------------------------------------------------------
     #   Z sym  total        # sym  WBO       # sym  WBO       # sym  WBO
 ---------------------------------------------------------------------------
     1   6 C    3.997 --     2 C    1.029     8 H    0.984     7 H    0.973
                             9 H    0.973
     2   6 C    3.978 --     6 N    1.500     3 C    1.328     1 C    1.029
     3   6 C    3.978 --     4 C    1.528     2 C    1.328    10 H    0.975
     4   6 C    3.958 --     3 C    1.528     5 N    1.277    11 H    0.969
                             6 N    0.164
     5   7 N    3.617 --     4 C    1.277     6 N    1.202    12 H    0.945
     6   7 N    2.960 --     2 C    1.500     5 N    1.202     4 C    0.164
     7   1 H    0.998 --     1 C    0.973
     8   1 H    0.997 --     1 C    0.984
     9   1 H    0.998 --     1 C    0.973
    10   1 H    0.999 --     3 C    0.975
    11   1 H    0.999 --     4 C    0.969
    12   1 H    0.975 --     5 N    0.945
 ---------------------------------------------------------------------------

Topologies differ in total number of bonds
Writing topology from bond orders to xtbtopo.mol

molecular dipole:
                 x           y           z       tot (Debye)
 q only:       -0.348       0.024      -0.023
   full:       -0.623       0.295       0.014       1.754
molecular quadrupole (traceless):
                xx          xy          yy          xz          yz          zz
 q only:        4.401       2.027      -2.063       1.002       0.257      -2.338
  q+dip:        6.597       3.213      -2.848       1.564       0.512      -3.749
   full:        6.333       3.119      -3.590       1.432       0.101      -2.743

           -------------------------------------------------
          |                Geometry Summary                 |
           -------------------------------------------------

      molecular mass/u    :       82.1039945
   center of mass at/Å    :       -0.2714323      -0.1711156      -0.0592888
  moments of inertia/u·Å² :        0.5545670E+02   0.1423717E+03   0.1946926E+03
rotational constants/cm⁻¹ :        0.3039783E+00   0.1184058E+00   0.8658587E-01

 * 12 selected distances

     #   Z          #   Z                                           value/Å
     1   6 C        2   6 C                                       1.4865959 (max)
     2   6 C        3   6 C                                       1.4101656
     3   6 C        4   6 C                                       1.3722812
     4   6 C        5   7 N                                       1.3490557
     2   6 C        6   7 N                                       1.3209269
     5   7 N        6   7 N                                       1.3320978
     1   6 C        7   1 H                                       1.0891721
     1   6 C        8   1 H                                       1.0856124
     1   6 C        9   1 H                                       1.0893167
     3   6 C       10   1 H                                       1.0704828
     4   6 C       11   1 H                                       1.0714294
     5   7 N       12   1 H                                       1.0070724 (min)

 * 5 distinct bonds (by element types)

   Z      Z             #   av. dist./Å        max./Å        min./Å
   1 H    6 C           5     1.0812027     1.0893167     1.0704828
   6 C    6 C           3     1.4230142     1.4865959     1.3722812
   1 H    7 N           1     1.0070724     1.0070724     1.0070724
   6 C    7 N           2     1.3349913     1.3490557     1.3209269
   7 N    7 N           1     1.3320978     1.3320978     1.3320978


optimized geometry written to: xtbopt.xyz


           -------------------------------------------------
          | TOTAL ENERGY              -17.450079545402 Eh   |
          | GRADIENT NORM               0.000472658463 Eh/α |
          | HOMO-LUMO GAP               4.869045634800 eV   |
           -------------------------------------------------

------------------------------------------------------------------------
 * finished run on 2026/01/15 at 10:06:44.579     
------------------------------------------------------------------------
 total:
 * wall-time:     0 d,  0 h,  0 min,  4.012 sec
 *  cpu-time:     0 d,  0 h,  0 min,  8.194 sec
 * ratio c/w:     2.042 speedup
 SCF:
 * wall-time:     0 d,  0 h,  0 min,  0.569 sec
 *  cpu-time:     0 d,  0 h,  0 min,  1.129 sec
 * ratio c/w:     1.984 speedup
 ANC optimizer:
 * wall-time:     0 d,  0 h,  0 min,  3.253 sec
 *  cpu-time:     0 d,  0 h,  0 min,  6.460 sec
 * ratio c/w:     1.986 speedup

