12
 energy: -17.450079545402 gnorm: 0.000472658463 xtb: 6.7.1 (edcfbbe)
C            1.89578214808481       -0.16503664695789        0.11737130927610
C            0.41385628353318       -0.13514683718540        0.00348807478429
C           -0.44379397285482        0.97085890707994        0.17598112278328
C           -1.70686877370977        0.47701379925472       -0.03357652134896
N           -1.56267717366361       -0.83574023523456       -0.30896084098815
N           -0.28633319227808       -1.21653691317743       -0.28836405544770
H            2.34470651985864        0.53221672486401       -0.58874503879519
H            2.25547458328925       -1.16764651337622       -0.09226859109665
H            2.20449313213278        0.12361398866431        1.12135783122358
H           -0.16473060607089        1.97585834109195        0.41688142655039
H           -2.66781594810757        0.95018455489525       -0.00806775828794
H           -2.28209400021399       -1.50964116991885       -0.51509595865303
