11
 energy: -17.265561198288 gnorm: 0.000905949781 xtb: 6.7.1 (edcfbbe)
C           -1.76448654735289        0.08650762201628        0.08746383376551
C           -0.28749081292253        0.22504610516752        0.05523543142901
C            0.66805836189063       -0.72437460092104       -0.18009285518551
C            1.95480587923463       -0.15630743287057       -0.10998350678015
N            2.00545549504123        1.12004593670558        0.15650069057788
S            0.50620157953963        1.73491981611045        0.34387049295771
H           -2.05239183976319       -0.92444491205905       -0.19406710355690
H           -2.23110565122067        0.79216865375340       -0.59942538747918
H           -2.14563754731098        0.29383179867665        1.08806989795075
H            0.46741188352241       -1.75856932788218       -0.39040752013586
H            2.87918019934174       -0.68882465869702       -0.25716597354324
