      -----------------------------------------------------------      
     |                   =====================                   |     
     |                           x T B                           |     
     |                   =====================                   |     
     |                         S. Grimme                         |     
     |          Mulliken Center for Theoretical Chemistry        |     
     |                    University of Bonn                     |     
      -----------------------------------------------------------      

   * xtb version 6.7.1 (edcfbbe) compiled by 'conda@c0858423619e' on 2025-09-04

   xtb is free software: you can redistribute it and/or modify it under
   the terms of the GNU Lesser General Public License as published by
   the Free Software Foundation, either version 3 of the License, or
   (at your option) any later version.
   
   xtb is distributed in the hope that it will be useful,
   but WITHOUT ANY WARRANTY; without even the implied warranty of
   MERCHANTABILITY or FITNESS FOR A PARTICULAR PURPOSE.  See the
   GNU Lesser General Public License for more details.
   
   Cite this work as:
   * C. Bannwarth, E. Caldeweyher, S. Ehlert, A. Hansen, P. Pracht,
     J. Seibert, S. Spicher, S. Grimme, WIREs Comput. Mol. Sci., 2020, 11,
     e01493. DOI: 10.1002/wcms.1493
   
   for GFN2-xTB:
   * C. Bannwarth, S. Ehlert and S. Grimme., J. Chem. Theory Comput., 2019,
     15, 1652-1671. DOI: 10.1021/acs.jctc.8b01176
   for GFN1-xTB:
   * S. Grimme, C. Bannwarth, P. Shushkov, J. Chem. Theory Comput., 2017,
     13, 1989-2009. DOI: 10.1021/acs.jctc.7b00118
   for GFN0-xTB:
   * P. Pracht, E. Caldeweyher, S. Ehlert, S. Grimme, ChemRxiv, 2019, preprint.
     DOI: 10.26434/chemrxiv.8326202.v1
   for GFN-FF:
   * S. Spicher and S. Grimme, Angew. Chem. Int. Ed., 2020, 59, 15665-15673.
     DOI: 10.1002/anie.202004239
   
   for ALPB and GBSA implicit solvation:
   * S. Ehlert, M. Stahn, S. Spicher, S. Grimme, J. Chem. Theory Comput.,
     2021, 17, 4250-4261. DOI: 10.1021/acs.jctc.1c00471
   
   for ddCOSMO and CPCM-X implicit solvation:
   * M. Stahn, S. Ehlert, S. Grimme, J. Phys. Chem. A,
     2023, XX, XXXX-XXXX. DOI: 10.1021/acs.jpca.3c04382
   
   for DFT-D4:
   * E. Caldeweyher, C. Bannwarth and S. Grimme, J. Chem. Phys., 2017,
     147, 034112. DOI: 10.1063/1.4993215
   * E. Caldeweyher, S. Ehlert, A. Hansen, H. Neugebauer, S. Spicher,
     C. Bannwarth and S. Grimme, J. Chem. Phys., 2019, 150, 154122.
     DOI: 10.1063/1.5090222
   * E. Caldeweyher, J.-M. Mewes, S. Ehlert and S. Grimme, Phys. Chem. Chem. Phys.
     2020, 22, 8499-8512. DOI: 10.1039/D0CP00502A
   
   for sTDA-xTB:
   * S. Grimme and C. Bannwarth, J. Chem. Phys., 2016, 145, 054103.
     DOI: 10.1063/1.4959605
   
   in the mass-spec context:
   * V. Asgeirsson, C. Bauer and S. Grimme, Chem. Sci., 2017, 8, 4879.
     DOI: 10.1039/c7sc00601b
   * J. Koopman and S. Grimme, ACS Omega 2019, 4, 12, 15120-15133.
     DOI: 10.1021/acsomega.9b02011
   
   for metadynamics refer to:
   * S. Grimme, J. Chem. Theory Comput., 2019, 155, 2847-2862
     DOI: 10.1021/acs.jctc.9b00143
   
   for SPH calculations refer to:
   * S. Spicher and S. Grimme, J. Chem. Theory Comput., 2021, 17, 1701-1714
     DOI: 10.1021/acs.jctc.0c01306
   
   for ONIOM refer to:
   * C. Plett, A. Katbashev, S. Ehlert, S. Grimme, M. Bursch,
     Phys. Chem. Chem. Phys., 2023, 25, 17860-17868. DOI: 10.1039/D3CP02178E
   
   for DIPRO refer to:
   * J. Kohn, N. Gildemeister, S. Grimme, D. Fazzi, A. Hansen,
     J. Chem. Phys., 2023, just accepted.
   
   for PTB refer to:
   * S. Grimme, M. Mueller, A. Hansen, J. Chem. Phys., 2023, 158, 124111.
     DOI: 10.1063/5.0137838
   
   with help from (in alphabetical order)
   P. Atkinson, C. Bannwarth, F. Bohle, G. Brandenburg, E. Caldeweyher
   M. Checinski, S. Dohm, S. Ehlert, S. Ehrlich, I. Gerasimov, C. Hölzer
   A. Katbashev, J. Kohn, J. Koopman, C. Lavigne, S. Lehtola, F. März, M. Müller,
   F. Musil, H. Neugebauer, J. Pisarek, C. Plett, P. Pracht, F. Pultar,
   J. Seibert, P. Shushkov, S. Spicher, M. Stahn, M. Steiner, T. Strunk,
   J. Stückrath, T. Rose, and J. Unsleber
   
 * started run on 2026/01/15 at 10:06:12.033     
   ID    Z sym.   atoms
    1    6 C      1-4
    2    7 N      5
    3   16 S      6
    4    1 H      7-11

           -------------------------------------------------
          |                Calculation Setup                |
           -------------------------------------------------

          program call               : /h/28/cicsy/miniforge3/envs/elagente/bin/xtb 5-methylisothiazole_substrate.xyz --opt --gfn 2 -P 4 --chrg 0
          coordinate file            : 5-methylisothiazole_substrate.xyz
          omp threads                :                     4


           -------------------------------------------------
          |                 G F N 2 - x T B                 |
           -------------------------------------------------

        Reference                      10.1021/acs.jctc.8b01176
      * Hamiltonian:
        H0-scaling (s, p, d)           1.850000    2.230000    2.230000
        zeta-weighting                 0.500000
      * Dispersion:
        s8                             2.700000
        a1                             0.520000
        a2                             5.000000
        s9                             5.000000
      * Repulsion:
        kExp                           1.500000    1.000000
        rExp                           1.000000
      * Coulomb:
        alpha                          2.000000
        third order                    shell-resolved
        anisotropic                    true
        a3                             3.000000
        a5                             4.000000
        cn-shift                       1.200000
        cn-exp                         4.000000
        max-rad                        5.000000


          ...................................................
          :                      SETUP                      :
          :.................................................:
          :  # basis functions                  35          :
          :  # atomic orbitals                  34          :
          :  # shells                           18          :
          :  # electrons                        32          :
          :  max. iterations                   250          :
          :  Hamiltonian                  GFN2-xTB          :
          :  restarted?                      false          :
          :  GBSA solvation                  false          :
          :  PC potential                    false          :
          :  electronic temp.          300.0000000     K    :
          :  accuracy                    1.0000000          :
          :  -> integral cutoff          0.2500000E+02      :
          :  -> integral neglect         0.1000000E-07      :
          :  -> SCF convergence          0.1000000E-05 Eh   :
          :  -> wf. convergence          0.1000000E-03 e    :
          :  Broyden damping             0.4000000          :
          :  net charge                          0          :
          :  unpaired electrons                  0          :
          ...................................................

 iter      E             dE          RMSdq      gap      omega  full diag
   1    -17.4384313 -0.174384E+02  0.405E+00    3.88       0.0  T
   2    -17.4591353 -0.207040E-01  0.265E+00    3.59       1.0  T
   3    -17.4609111 -0.177584E-02  0.124E+00    3.88       1.0  T
   4    -17.4663942 -0.548307E-02  0.546E-01    3.72       1.0  T
   5    -17.4675642 -0.117005E-02  0.189E-01    3.77       1.0  T
   6    -17.4677116 -0.147365E-03  0.768E-02    3.77       1.0  T
   7    -17.4677315 -0.198838E-04  0.196E-02    3.77       1.5  T
   8    -17.4677321 -0.570927E-06  0.111E-02    3.77       2.7  T
   9    -17.4677324 -0.333413E-06  0.234E-03    3.77      12.9  T
  10    -17.4677324 -0.229593E-08  0.963E-04    3.77      31.3  T
  11    -17.4677324 -0.335035E-08  0.403E-04    3.77      74.9  T

   *** convergence criteria satisfied after 11 iterations ***

         #    Occupation            Energy/Eh            Energy/eV
      -------------------------------------------------------------
         1        2.0000           -0.7405036             -20.1501
       ...           ...                  ...                  ...
        10        2.0000           -0.4866121             -13.2414
        11        2.0000           -0.4847569             -13.1909
        12        2.0000           -0.4657254             -12.6730
        13        2.0000           -0.4496480             -12.2355
        14        2.0000           -0.4084417             -11.1143
        15        2.0000           -0.4050157             -11.0210
        16        2.0000           -0.4022634             -10.9461 (HOMO)
        17                         -0.2636734              -7.1749 (LUMO)
        18                         -0.1982707              -5.3952
        19                         -0.1874848              -5.1017
        20                         -0.1359036              -3.6981
        21                          0.0062502               0.1701
       ...                                ...                  ...
        34                          0.7239984              19.7010
      -------------------------------------------------------------
                  HL-Gap            0.1385900 Eh            3.7712 eV
             Fermi-level           -0.3329684 Eh           -9.0605 eV

 SCC (total)                   0 d,  0 h,  0 min,  0.975 sec
 SCC setup                      ...        0 min,  0.000 sec (  0.024%)
 Dispersion                     ...        0 min,  0.000 sec (  0.005%)
 classical contributions        ...        0 min,  0.007 sec (  0.731%)
 integral evaluation            ...        0 min,  0.004 sec (  0.425%)
 iterations                     ...        0 min,  0.860 sec ( 88.164%)
 molecular gradient             ...        0 min,  0.103 sec ( 10.610%)
 printout                       ...        0 min,  0.000 sec (  0.039%)

         :::::::::::::::::::::::::::::::::::::::::::::::::::::
         ::                     SUMMARY                     ::
         :::::::::::::::::::::::::::::::::::::::::::::::::::::
         :: total energy             -17.255444007138 Eh    ::
         :: gradient norm              0.093400949121 Eh/a0 ::
         :: HOMO-LUMO gap              3.771224687080 eV    ::
         ::.................................................::
         :: SCC energy               -17.467727144051 Eh    ::
         :: -> isotropic ES            0.009651361645 Eh    ::
         :: -> anisotropic ES          0.002181300356 Eh    ::
         :: -> anisotropic XC          0.012133383530 Eh    ::
         :: -> dispersion             -0.007996628898 Eh    ::
         :: repulsion energy           0.212283136914 Eh    ::
         :: add. restraining           0.000000000000 Eh    ::
         :: total charge               0.000000000000 e     ::
         :::::::::::::::::::::::::::::::::::::::::::::::::::::

      ----------------------------------------------------------- 
     |                   =====================                   |
     |                        A N C O P T                        |
     |                   =====================                   |
     |               Approximate Normal Coordinate               |
     |                Rational Function Optimizer                |
      ----------------------------------------------------------- 
      ----------------------------------------------------------- 
     |                   =====================                   |
     |                        A N C O P T                        |
     |                   =====================                   |
     |               Approximate Normal Coordinate               |
     |                Rational Function Optimizer                |
      ----------------------------------------------------------- 

          ...................................................
          :                      SETUP                      :
          :.................................................:
          :   optimization level            normal          :
          :   max. optcycles                   200          :
          :   ANC micro-cycles                  20          :
          :   degrees of freedom                27          :
          :.................................................:
          :   RF solver                   davidson          :
          :   write xtbopt.log                true          :
          :   linear?                        false          :
          :   energy convergence         0.5000000E-05 Eh   :
          :   grad. convergence          0.1000000E-02 Eh/α :
          :   maxmium RF displ.          1.0000000          :
          :   Hlow (freq-cutoff)         0.1000000E-01      :
          :   Hmax (freq-cutoff)         5.0000000          :
          :   S6 in model hess.         20.0000000          :
          ...................................................

generating ANC from exact Hessian ...
Using Lindh-Hessian (1995)
 Shifting diagonal of input Hessian by    8.1318796395525930E-004
 Lowest  eigenvalues of input Hessian
    0.000000    0.000000    0.000000    0.000000    0.000000    0.000000
    0.010000    0.010400    0.023038    0.033240    0.047426    0.053303
    0.067599    0.072623    0.099664    0.104095    0.117679    0.127129
 Highest eigenvalues
    1.073342    1.301454    1.554380    1.650503    1.800283    1.863852


........................................................................
.............................. CYCLE    1 ..............................
........................................................................

 iter      E             dE          RMSdq      gap      omega  full diag
   1    -17.4677324 -0.174677E+02  0.182E-04    3.77       0.0  T
   2    -17.4677324 -0.932054E-10  0.112E-04    3.77     270.3  T
   3    -17.4677324 -0.753460E-10  0.591E-05    3.77     510.1  T
     SCC iter.                  ...        0 min,  0.214 sec
     gradient                   ...        0 min,  0.142 sec
 * total energy  :   -17.2554440 Eh     change       -0.1200959E-09 Eh
   gradient norm :     0.0934004 Eh/α   predicted     0.0000000E+00 (-100.00%)
   displ. norm   :     0.1979658 α      lambda       -0.1228398E-01
   maximum displ.:     0.0994641 α      in ANC's #16, #14, #6, ...

........................................................................
.............................. CYCLE    2 ..............................
........................................................................

 iter      E             dE          RMSdq      gap      omega  full diag
   1    -17.4910803 -0.174911E+02  0.528E-01    3.75       0.0  T
   2    -17.4911842 -0.103953E-03  0.298E-01    3.76       1.0  T
   3    -17.4910928  0.914630E-04  0.135E-01    3.75       1.0  T
   4    -17.4912266 -0.133865E-03  0.541E-02    3.76       1.0  T
   5    -17.4912317 -0.505947E-05  0.269E-02    3.75       1.1  T
   6    -17.4912343 -0.264642E-05  0.760E-03    3.76       4.0  T
   7    -17.4912345 -0.158100E-06  0.389E-03    3.76       7.8  T
   8    -17.4912345 -0.287955E-08  0.642E-04    3.76      47.0  T
   9    -17.4912345 -0.179987E-08  0.261E-04    3.76     115.6  T
     SCC iter.                  ...        0 min,  0.608 sec
     gradient                   ...        0 min,  0.110 sec
 * total energy  :   -17.2635602 Eh     change       -0.8116192E-02 Eh
   gradient norm :     0.0417939 Eh/α   predicted    -0.6382696E-02 ( -21.36%)
   displ. norm   :     0.1422500 α      lambda       -0.2834840E-02
   maximum displ.:     0.0675516 α      in ANC's #3, #6, #9, ...

........................................................................
.............................. CYCLE    3 ..............................
........................................................................

 iter      E             dE          RMSdq      gap      omega  full diag
   1    -17.5003388 -0.175003E+02  0.271E-01    3.73       0.0  T
   2    -17.5003918 -0.529783E-04  0.161E-01    3.77       1.0  T
   3    -17.5003726  0.192231E-04  0.804E-02    3.75       1.0  T
   4    -17.5004153 -0.427447E-04  0.325E-02    3.77       1.0  T
   5    -17.5004189 -0.351918E-05  0.129E-02    3.76       2.3  T
   6    -17.5004191 -0.199538E-06  0.417E-03    3.76       7.2  T
   7    -17.5004191 -0.825440E-07  0.154E-03    3.76      19.5  T
   8    -17.5004191 -0.608349E-09  0.684E-04    3.76      44.1  T
   9    -17.5004191 -0.145968E-08  0.161E-04    3.76     187.3  T
     SCC iter.                  ...        0 min,  0.799 sec
     gradient                   ...        0 min,  0.116 sec
 * total energy  :   -17.2651638 Eh     change       -0.1603627E-02 Eh
   gradient norm :     0.0147024 Eh/α   predicted    -0.1446103E-02 (  -9.82%)
   displ. norm   :     0.0637248 α      lambda       -0.2883741E-03
   maximum displ.:     0.0490598 α      in ANC's #3, #1, #9, ...

........................................................................
.............................. CYCLE    4 ..............................
........................................................................

 iter      E             dE          RMSdq      gap      omega  full diag
   1    -17.4994042 -0.174994E+02  0.693E-02    3.76       0.0  T
   2    -17.4994092 -0.500453E-05  0.471E-02    3.78       1.0  T
   3    -17.4994112 -0.202840E-05  0.234E-02    3.77       1.3  T
   4    -17.4994129 -0.166173E-05  0.853E-03    3.77       3.5  T
   5    -17.4994131 -0.246911E-06  0.250E-03    3.77      12.0  T
   6    -17.4994131 -0.947762E-08  0.104E-03    3.77      28.9  T
   7    -17.4994132 -0.634038E-08  0.377E-04    3.77      80.0  T
   8    -17.4994132 -0.133191E-09  0.136E-04    3.77     222.4  T
     SCC iter.                  ...        0 min,  0.647 sec
     gradient                   ...        0 min,  0.108 sec
 * total energy  :   -17.2653564 Eh     change       -0.1925797E-03 Eh
   gradient norm :     0.0081010 Eh/α   predicted    -0.1447707E-03 ( -24.83%)
   displ. norm   :     0.0382761 α      lambda       -0.9851340E-04
   maximum displ.:     0.0312791 α      in ANC's #3, #1, #5, ...

........................................................................
.............................. CYCLE    5 ..............................
........................................................................

 iter      E             dE          RMSdq      gap      omega  full diag
   1    -17.4985040 -0.174985E+02  0.464E-02    3.77       0.0  T
   2    -17.4985060 -0.200650E-05  0.302E-02    3.78       1.0  T
   3    -17.4985068 -0.742709E-06  0.164E-02    3.77       1.8  T
   4    -17.4985075 -0.750511E-06  0.501E-03    3.78       6.0  T
   5    -17.4985076 -0.933557E-07  0.169E-03    3.78      17.9  T
   6    -17.4985076 -0.135073E-07  0.733E-04    3.78      41.2  T
   7    -17.4985076 -0.445830E-09  0.328E-04    3.78      92.0  T
     SCC iter.                  ...        0 min,  0.502 sec
     gradient                   ...        0 min,  0.080 sec
 * total energy  :   -17.2654127 Eh     change       -0.5628076E-04 Eh
   gradient norm :     0.0028857 Eh/α   predicted    -0.4932851E-04 ( -12.35%)
   displ. norm   :     0.0201645 α      lambda       -0.1615117E-04
   maximum displ.:     0.0167352 α      in ANC's #2, #1, #3, ...

........................................................................
.............................. CYCLE    6 ..............................
........................................................................

 iter      E             dE          RMSdq      gap      omega  full diag
   1    -17.4983995 -0.174984E+02  0.193E-02    3.77       0.0  T
   2    -17.4983997 -0.153812E-06  0.114E-02    3.77       2.6  T
   3    -17.4983995  0.116451E-06  0.638E-03    3.77       4.7  T
   4    -17.4983997 -0.198226E-06  0.155E-03    3.77      19.5  T
   5    -17.4983997 -0.109026E-07  0.515E-04    3.77      58.6  T
   6    -17.4983997 -0.116842E-08  0.222E-04    3.77     135.6  T
     SCC iter.                  ...        0 min,  0.673 sec
     gradient                   ...        0 min,  0.154 sec
 * total energy  :   -17.2654226 Eh     change       -0.9870235E-05 Eh
   gradient norm :     0.0010106 Eh/α   predicted    -0.8076853E-05 ( -18.17%)
   displ. norm   :     0.0358885 α      lambda       -0.6952947E-05
   maximum displ.:     0.0289745 α      in ANC's #2, #1, #9, ...

........................................................................
.............................. CYCLE    7 ..............................
........................................................................

 iter      E             dE          RMSdq      gap      omega  full diag
   1    -17.4984666 -0.174985E+02  0.221E-02    3.77       0.0  T
   2    -17.4984667 -0.105942E-06  0.126E-02    3.77       2.4  T
   3    -17.4984665  0.128356E-06  0.473E-03    3.77       6.4  T
   4    -17.4984667 -0.166719E-06  0.150E-03    3.77      20.1  T
   5    -17.4984667 -0.669886E-08  0.526E-04    3.77      57.3  T
   6    -17.4984667 -0.127543E-08  0.152E-04    3.77     198.5  T
     SCC iter.                  ...        0 min,  0.616 sec
     gradient                   ...        0 min,  0.131 sec
 * total energy  :   -17.2654278 Eh     change       -0.5280107E-05 Eh
   gradient norm :     0.0013589 Eh/α   predicted    -0.3478260E-05 ( -34.13%)
   displ. norm   :     0.0257368 α      lambda       -0.3546360E-05
   maximum displ.:     0.0200809 α      in ANC's #2, #1, #5, ...

........................................................................
.............................. CYCLE    8 ..............................
........................................................................

 iter      E             dE          RMSdq      gap      omega  full diag
   1    -17.4985278 -0.174985E+02  0.134E-02    3.77       0.0  T
   2    -17.4985278 -0.193622E-07  0.751E-03    3.77       4.0  T
   3    -17.4985278  0.142734E-07  0.201E-03    3.77      15.0  T
   4    -17.4985278 -0.205279E-07  0.743E-04    3.77      40.6  T
   5    -17.4985278 -0.245016E-09  0.274E-04    3.77     110.1  T
     SCC iter.                  ...        0 min,  0.426 sec
     gradient                   ...        0 min,  0.109 sec
 * total energy  :   -17.2654321 Eh     change       -0.4310426E-05 Eh
   gradient norm :     0.0010758 Eh/α   predicted    -0.1773269E-05 ( -58.86%)
   displ. norm   :     0.0619666 α      lambda       -0.7123455E-05
   maximum displ.:     0.0452661 α      in ANC's #2, #1, #5, ...

........................................................................
.............................. CYCLE    9 ..............................
........................................................................

 iter      E             dE          RMSdq      gap      omega  full diag
   1    -17.4984672 -0.174985E+02  0.303E-02    3.77       0.0  T
   2    -17.4984673 -0.940892E-07  0.173E-02    3.77       1.7  T
   3    -17.4984673  0.261865E-07  0.338E-03    3.77       8.9  T
   4    -17.4984674 -0.556291E-07  0.133E-03    3.77      22.7  T
   5    -17.4984674 -0.234980E-09  0.545E-04    3.77      55.3  T
   6    -17.4984674 -0.246629E-08  0.141E-04    3.77     213.8  T
     SCC iter.                  ...        0 min,  0.600 sec
     gradient                   ...        0 min,  0.144 sec
 * total energy  :   -17.2654409 Eh     change       -0.8782006E-05 Eh
   gradient norm :     0.0010814 Eh/α   predicted    -0.3567950E-05 ( -59.37%)
   displ. norm   :     0.0957945 α      lambda       -0.9148360E-05
   maximum displ.:     0.0714350 α      in ANC's #2, #1, #5, ...

........................................................................
.............................. CYCLE   10 ..............................
........................................................................

 iter      E             dE          RMSdq      gap      omega  full diag
   1    -17.4982668 -0.174983E+02  0.444E-02    3.77       0.0  T
   2    -17.4982670 -0.205227E-06  0.249E-02    3.77       1.2  T
   3    -17.4982670 -0.423703E-07  0.371E-03    3.77       8.1  T
   4    -17.4982670 -0.170044E-09  0.181E-03    3.77      16.6  T
   5    -17.4982670 -0.147096E-07  0.612E-04    3.77      49.3  T
   6    -17.4982670 -0.247018E-08  0.195E-04    3.77     154.3  T
     SCC iter.                  ...        0 min,  0.903 sec
     gradient                   ...        0 min,  0.046 sec
 * total energy  :   -17.2654528 Eh     change       -0.1191849E-04 Eh
   gradient norm :     0.0016160 Eh/α   predicted    -0.4591549E-05 ( -61.48%)
   displ. norm   :     0.1374391 α      lambda       -0.1298391E-04
   maximum displ.:     0.1058372 α      in ANC's #2, #1, #5, ...

........................................................................
.............................. CYCLE   11 ..............................
........................................................................

 iter      E             dE          RMSdq      gap      omega  full diag
   1    -17.4979674 -0.174980E+02  0.642E-02    3.77       0.0  T
   2    -17.4979678 -0.388683E-06  0.364E-02    3.77       1.0  T
   3    -17.4979679 -0.111123E-06  0.447E-03    3.77       6.8  T
   4    -17.4979679  0.200619E-08  0.144E-03    3.77      20.9  T
   5    -17.4979679 -0.697049E-08  0.604E-04    3.77      49.9  T
   6    -17.4979679 -0.246584E-08  0.231E-04    3.77     130.6  T
     SCC iter.                  ...        0 min,  0.664 sec
     gradient                   ...        0 min,  0.181 sec
 * total energy  :   -17.2654691 Eh     change       -0.1622919E-04 Eh
   gradient norm :     0.0022723 Eh/α   predicted    -0.6547845E-05 ( -59.65%)
   displ. norm   :     0.0827788 α      lambda       -0.1403248E-04
   maximum displ.:     0.0655113 α      in ANC's #2, #1, #5, ...

........................................................................
.............................. CYCLE   12 ..............................
........................................................................

 iter      E             dE          RMSdq      gap      omega  full diag
   1    -17.4980488 -0.174980E+02  0.389E-02    3.77       0.0  T
   2    -17.4980489 -0.153971E-06  0.220E-02    3.77       1.4  T
   3    -17.4980490 -0.394387E-07  0.287E-03    3.77      10.5  T
   4    -17.4980490  0.753580E-09  0.130E-03    3.77      23.3  T
   5    -17.4980490 -0.746213E-08  0.446E-04    3.77      67.6  T
   6    -17.4980490 -0.124254E-08  0.174E-04    3.77     173.6  T
     SCC iter.                  ...        0 min,  0.597 sec
     gradient                   ...        0 min,  0.120 sec
 * total energy  :   -17.2654814 Eh     change       -0.1235226E-04 Eh
   gradient norm :     0.0020954 Eh/α   predicted    -0.7063047E-05 ( -42.82%)
   displ. norm   :     0.1571237 α      lambda       -0.2492974E-04
   maximum displ.:     0.1245979 α      in ANC's #2, #1, #5, ...

........................................................................
.............................. CYCLE   13 ..............................
........................................................................

 iter      E             dE          RMSdq      gap      omega  full diag
   1    -17.4978809 -0.174979E+02  0.740E-02    3.77       0.0  T
   2    -17.4978814 -0.547121E-06  0.419E-02    3.77       1.0  T
   3    -17.4978815 -0.101265E-06  0.567E-03    3.77       5.3  T
   4    -17.4978816 -0.381110E-07  0.281E-03    3.77      10.7  T
   5    -17.4978816 -0.275917E-07  0.682E-04    3.77      44.2  T
   6    -17.4978816 -0.186988E-08  0.357E-04    3.77      84.5  T
     SCC iter.                  ...        0 min,  0.489 sec
     gradient                   ...        0 min,  0.163 sec
 * total energy  :   -17.2655006 Eh     change       -0.1918920E-04 Eh
   gradient norm :     0.0021127 Eh/α   predicted    -0.1277046E-04 ( -33.45%)
   displ. norm   :     0.1764189 α      lambda       -0.2619813E-04
   maximum displ.:     0.1428805 α      in ANC's #2, #1, #5, ...

........................................................................
.............................. CYCLE   14 ..............................
........................................................................

 iter      E             dE          RMSdq      gap      omega  full diag
   1    -17.4977525 -0.174978E+02  0.841E-02    3.77       0.0  T
   2    -17.4977532 -0.689797E-06  0.478E-02    3.77       1.0  T
   3    -17.4977533 -0.130701E-06  0.633E-03    3.77       4.8  T
   4    -17.4977534 -0.445663E-07  0.321E-03    3.77       9.4  T
   5    -17.4977534 -0.378631E-07  0.885E-04    3.77      34.1  T
   6    -17.4977534 -0.427234E-08  0.413E-04    3.77      73.0  T
     SCC iter.                  ...        0 min,  0.668 sec
     gradient                   ...        0 min,  0.125 sec
 * total energy  :   -17.2655171 Eh     change       -0.1648894E-04 Eh
   gradient norm :     0.0025457 Eh/α   predicted    -0.1350895E-04 ( -18.07%)
   displ. norm   :     0.0698139 α      lambda       -0.2459362E-04
   maximum displ.:     0.0568043 α      in ANC's #2, #1, #17, ...

........................................................................
.............................. CYCLE   15 ..............................
........................................................................

 iter      E             dE          RMSdq      gap      omega  full diag
   1    -17.4989682 -0.174990E+02  0.374E-02    3.77       0.0  T
   2    -17.4989685 -0.350758E-06  0.212E-02    3.77       1.4  T
   3    -17.4989685 -0.144719E-07  0.371E-03    3.77       8.1  T
   4    -17.4989686 -0.251516E-07  0.173E-03    3.77      17.4  T
   5    -17.4989686 -0.110283E-07  0.894E-04    3.77      33.7  T
   6    -17.4989686 -0.352776E-08  0.259E-04    3.77     116.2  T
     SCC iter.                  ...        0 min,  0.425 sec
     gradient                   ...        0 min,  0.144 sec
 * total energy  :   -17.2655277 Eh     change       -0.1063222E-04 Eh
   gradient norm :     0.0015209 Eh/α   predicted    -0.1235799E-04 (  16.23%)
   displ. norm   :     0.3082775 α      lambda       -0.2244159E-04
   maximum displ.:     0.2328372 α      in ANC's #2, #1, #5, ...

........................................................................
.............................. CYCLE   16 ..............................
........................................................................

 iter      E             dE          RMSdq      gap      omega  full diag
   1    -17.4966082 -0.174966E+02  0.148E-01    3.76       0.0  T
   2    -17.4966117 -0.345977E-05  0.834E-02    3.76       1.0  T
   3    -17.4966120 -0.294430E-06  0.136E-02    3.76       2.2  T
   4    -17.4966123 -0.337554E-06  0.641E-03    3.76       4.7  T
   5    -17.4966124 -0.825142E-07  0.196E-03    3.76      15.4  T
   6    -17.4966124 -0.146346E-07  0.653E-04    3.76      46.2  T
   7    -17.4966124 -0.113109E-08  0.353E-04    3.76      85.5  T
     SCC iter.                  ...        0 min,  0.748 sec
     gradient                   ...        0 min,  0.104 sec
 * total energy  :   -17.2655117 Eh     change        0.1605841E-04 Eh
   gradient norm :     0.0058306 Eh/α   predicted    -0.1169703E-04 (-172.84%)
   displ. norm   :     0.1464382 α      lambda       -0.6911792E-04
   maximum displ.:     0.1168459 α      in ANC's #2, #1, #5, ...

........................................................................
.............................. CYCLE   17 ..............................
........................................................................

 iter      E             dE          RMSdq      gap      omega  full diag
   1    -17.4983020 -0.174983E+02  0.732E-02    3.76       0.0  T
   2    -17.4983031 -0.111241E-05  0.412E-02    3.76       1.0  T
   3    -17.4983031 -0.591436E-07  0.730E-03    3.76       4.1  T
   4    -17.4983032 -0.113053E-06  0.319E-03    3.76       9.5  T
   5    -17.4983033 -0.166158E-07  0.122E-03    3.76      24.8  T
   6    -17.4983033 -0.423679E-08  0.512E-04    3.76      58.9  T
   7    -17.4983033 -0.147753E-08  0.202E-04    3.76     149.5  T
     SCC iter.                  ...        0 min,  0.658 sec
     gradient                   ...        0 min,  0.001 sec
 * total energy  :   -17.2655425 Eh     change       -0.3079983E-04 Eh
   gradient norm :     0.0016536 Eh/α   predicted    -0.3530016E-04 (  14.61%)
   displ. norm   :     0.0457019 α      lambda       -0.5490223E-05
   maximum displ.:     0.0344242 α      in ANC's #2, #1, #14, ...

........................................................................
.............................. CYCLE   18 ..............................
........................................................................

 iter      E             dE          RMSdq      gap      omega  full diag
   1    -17.4986346 -0.174986E+02  0.246E-02    3.76       0.0  T
   2    -17.4986347 -0.901909E-07  0.140E-02    3.77       2.2  T
   3    -17.4986347  0.280412E-07  0.321E-03    3.76       9.4  T
   4    -17.4986347 -0.507866E-07  0.111E-03    3.77      27.2  T
   5    -17.4986347 -0.111218E-08  0.495E-04    3.77      60.9  T
   6    -17.4986347 -0.116435E-08  0.160E-04    3.77     188.4  T
     SCC iter.                  ...        0 min,  0.455 sec
     gradient                   ...        0 min,  0.148 sec
 * total energy  :   -17.2655483 Eh     change       -0.5845143E-05 Eh
   gradient norm :     0.0007499 Eh/α   predicted    -0.2748354E-05 ( -52.98%)
   displ. norm   :     0.1403714 α      lambda       -0.8065113E-05
   maximum displ.:     0.0968285 α      in ANC's #2, #1, #5, ...

........................................................................
.............................. CYCLE   19 ..............................
........................................................................

 iter      E             dE          RMSdq      gap      omega  full diag
   1    -17.4985641 -0.174986E+02  0.660E-02    3.77       0.0  T
   2    -17.4985644 -0.369871E-06  0.372E-02    3.77       1.0  T
   3    -17.4985645 -0.703646E-07  0.534E-03    3.77       5.6  T
   4    -17.4985645  0.103427E-07  0.282E-03    3.77      10.7  T
   5    -17.4985645 -0.534817E-07  0.732E-04    3.77      41.2  T
   6    -17.4985645 -0.347485E-08  0.279E-04    3.77     108.2  T
     SCC iter.                  ...        0 min,  0.474 sec
     gradient                   ...        0 min,  0.147 sec
 * total energy  :   -17.2655568 Eh     change       -0.8497720E-05 Eh
   gradient norm :     0.0007582 Eh/α   predicted    -0.4069031E-05 ( -52.12%)
   displ. norm   :     0.1473768 α      lambda       -0.4505398E-05
   maximum displ.:     0.1078028 α      in ANC's #2, #1, #5, ...

........................................................................
.............................. CYCLE   20 ..............................
........................................................................

 iter      E             dE          RMSdq      gap      omega  full diag
   1    -17.4979281 -0.174979E+02  0.705E-02    3.76       0.0  T
   2    -17.4979286 -0.515512E-06  0.395E-02    3.76       1.0  T
   3    -17.4979287 -0.129935E-06  0.536E-03    3.76       5.6  T
   4    -17.4979287  0.344232E-08  0.200E-03    3.76      15.0  T
   5    -17.4979287 -0.150327E-07  0.687E-04    3.76      43.9  T
   6    -17.4979287 -0.337860E-08  0.278E-04    3.76     108.6  T
     SCC iter.                  ...        0 min,  0.602 sec
     gradient                   ...        0 min,  0.125 sec
 * total energy  :   -17.2655567 Eh     change        0.1017316E-06 Eh
   gradient norm :     0.0021930 Eh/α   predicted    -0.2275494E-05 (*******%)
   displ. norm   :     0.0279506 α      lambda       -0.7196617E-05
   maximum displ.:     0.0218294 α      in ANC's #2, #1, #5, ...
 * RMSD in coord.:     0.4220299 α      energy gain  -0.1011271E-01 Eh

generating ANC from exact Hessian ...
Using Lindh-Hessian (1995)
 Shifting diagonal of input Hessian by    8.1247941873250837E-004
 Lowest  eigenvalues of input Hessian
    0.000000    0.000000    0.000000    0.000000    0.000000    0.000000
    0.010000    0.011256    0.024208    0.036671    0.052306    0.056956
    0.078336    0.081043    0.108260    0.122496    0.135228    0.147668
 Highest eigenvalues
    1.149012    1.374154    1.531148    1.691092    1.883872    2.017597


........................................................................
.............................. CYCLE   21 ..............................
........................................................................

 iter      E             dE          RMSdq      gap      omega  full diag
   1    -17.4984550 -0.174985E+02  0.155E-02    3.77       0.0  T
   2    -17.4984551 -0.746205E-07  0.865E-03    3.77       3.5  T
   3    -17.4984551 -0.659855E-08  0.159E-03    3.77      18.9  T
   4    -17.4984551 -0.162527E-08  0.639E-04    3.77      47.2  T
   5    -17.4984551  0.590816E-11  0.354E-04    3.77      85.1  T
     SCC iter.                  ...        0 min,  0.641 sec
     gradient                   ...        0 min,  0.171 sec
 * total energy  :   -17.2655612 Eh     change       -0.4475441E-05 Eh
   gradient norm :     0.0009057 Eh/α   predicted     0.0000000E+00 (-100.00%)
   displ. norm   :     0.0086819 α      lambda       -0.2252868E-05
   maximum displ.:     0.0062941 α      in ANC's #1, #2, #5, ...

   *** GEOMETRY OPTIMIZATION CONVERGED AFTER 21 ITERATIONS ***

------------------------------------------------------------------------
 total energy gain   :        -0.0101172 Eh       -6.3486 kcal/mol
 total RMSD          :         0.4220299 a0        0.2233 Å
 total power (kW/mol):        -1.2648895 (step)   -1.5827 (real)
------------------------------------------------------------------------

 ANCopt (total)                0 d,  0 h,  0 min, 16.784 sec
 optimizer setup                ...        0 min,  0.000 sec (  0.003%)
 model hessian                  ...        0 min,  0.002 sec (  0.009%)
 ANC generation                 ...        0 min,  0.001 sec (  0.004%)
 coordinate transformation      ...        0 min,  0.000 sec (  0.001%)
 single point calculation       ...        0 min, 16.542 sec ( 98.563%)
 optimization log               ...        0 min,  0.004 sec (  0.023%)
 hessian update                 ...        0 min,  0.221 sec (  1.319%)
 rational function              ...        0 min,  0.004 sec (  0.021%)

================
 final structure:
================
11
 xtb: 6.7.1 (edcfbbe)
C           -1.76448654735289        0.08650762201628        0.08746383376551
C           -0.28749081292253        0.22504610516752        0.05523543142901
C            0.66805836189063       -0.72437460092104       -0.18009285518551
C            1.95480587923463       -0.15630743287057       -0.10998350678015
N            2.00545549504123        1.12004593670558        0.15650069057788
S            0.50620157953963        1.73491981611045        0.34387049295771
H           -2.05239183976319       -0.92444491205905       -0.19406710355690
H           -2.23110565122067        0.79216865375340       -0.59942538747918
H           -2.14563754731098        0.29383179867665        1.08806989795075
H            0.46741188352241       -1.75856932788218       -0.39040752013586
H            2.87918019934174       -0.68882465869702       -0.25716597354324

 Bond Distances (Angstroems)
 ---------------------------
C1-C2=1.4838         C1-H7=1.0882         C1-H8=1.0897         C1-H9=1.0906         C2-C1=1.4838         C2-C3=1.3674         
C2-S6=1.7300         C3-C2=1.3674         C3-C4=1.4083         C3-H10=1.0743        C4-C3=1.4083         C4-N5=1.3049         
C4-H11=1.0769        N5-C4=1.3049         N5-S6=1.6312         S6-C2=1.7300         S6-N5=1.6312         H7-C1=1.0882         
H8-C1=1.0897         H9-C1=1.0906         H10-C3=1.0743        H11-C4=1.0769        
 C  H  Rav=1.0839 sigma=0.0069  Rmin=1.0743  Rmax=1.0906     5
 C  C  Rav=1.4199 sigma=0.0482  Rmin=1.3674  Rmax=1.4838     3
 N  C  Rav=1.3049 sigma=0.0000  Rmin=1.3049  Rmax=1.3049     1
 S  C  Rav=1.7300 sigma=0.0000  Rmin=1.7300  Rmax=1.7300     1
 S  N  Rav=1.6312 sigma=0.0000  Rmin=1.6312  Rmax=1.6312     1

 selected bond angles (degree)
 --------------------
H7-C1-C2=110.15                H8-C1-C2=110.61                H8-C1-H7=108.98                H9-C1-C2=110.49                
H9-C1-H7=108.75                H9-C1-H8=107.79                C3-C2-C1=129.38                S6-C2-C1=122.31                
S6-C2-C3=108.31                C4-C3-C2=110.48                H10-C3-C2=124.86               H10-C3-C4=124.66               
N5-C4-C3=116.12                H11-C4-C3=125.31               H11-C4-N5=118.57               S6-N5-C4=110.88                
N5-S6-C2= 94.22                

 selected dihedral angles (degree)
 ---------------------------------
C3-C2-C1-H7=355.35            C3-C2-C1-H8=234.81            C3-C2-C1-H9=115.53            S6-C2-C1-H7=175.72            
S6-C2-C1-H8= 55.18            S6-C2-C1-H9=295.90            C4-C3-C2-C1=180.25            C4-C3-C2-S6=359.92            
H10-C3-C2-C1=  0.32           H10-C3-C2-S6=179.99           N5-C4-C3-C2=  0.04            N5-C4-C3-H10=179.97           
H11-C4-C3-C2=180.03           H11-C4-C3-H10=359.95          S6-N5-C4-C3=  0.00            S6-N5-C4-H11=180.04           
N5-S6-C2-C1=179.78            N5-S6-C2-C3=  0.08            C2-S6-N5-C4=359.94            
           -------------------------------------------------
          |                Final Singlepoint                |
           -------------------------------------------------

          ...................................................
          :                      SETUP                      :
          :.................................................:
          :  # basis functions                  35          :
          :  # atomic orbitals                  34          :
          :  # shells                           18          :
          :  # electrons                        32          :
          :  max. iterations                   250          :
          :  Hamiltonian                  GFN2-xTB          :
          :  restarted?                      false          :
          :  GBSA solvation                  false          :
          :  PC potential                    false          :
          :  electronic temp.          300.0000000     K    :
          :  accuracy                    1.0000000          :
          :  -> integral cutoff          0.2500000E+02      :
          :  -> integral neglect         0.1000000E-07      :
          :  -> SCF convergence          0.1000000E-05 Eh   :
          :  -> wf. convergence          0.1000000E-03 e    :
          :  Broyden damping             0.4000000          :
          :  net charge                          0          :
          :  unpaired electrons                  0          :
          ...................................................

 iter      E             dE          RMSdq      gap      omega  full diag
   1    -17.4984551 -0.174985E+02  0.939E-05    3.77       0.0  T
   2    -17.4984551 -0.116636E-10  0.642E-05    3.77     469.8  T
   3    -17.4984551 -0.222329E-10  0.322E-05    3.77     935.7  T

   *** convergence criteria satisfied after 3 iterations ***

         #    Occupation            Energy/Eh            Energy/eV
      -------------------------------------------------------------
         1        2.0000           -0.7370127             -20.0551
       ...           ...                  ...                  ...
        10        2.0000           -0.4893513             -13.3159
        11        2.0000           -0.4851085             -13.2005
        12        2.0000           -0.4670825             -12.7100
        13        2.0000           -0.4525556             -12.3147
        14        2.0000           -0.4094844             -11.1426
        15        2.0000           -0.3993437             -10.8667
        16        2.0000           -0.3967899             -10.7972 (HOMO)
        17                         -0.2584091              -7.0317 (LUMO)
        18                         -0.2076011              -5.6491
        19                         -0.1784769              -4.8566
        20                         -0.1254681              -3.4142
        21                          0.0130231               0.3544
       ...                                ...                  ...
        34                          0.6816220              18.5479
      -------------------------------------------------------------
                  HL-Gap            0.1383808 Eh            3.7655 eV
             Fermi-level           -0.3275995 Eh           -8.9144 eV

 SCC (total)                   0 d,  0 h,  0 min,  0.573 sec
 SCC setup                      ...        0 min,  0.014 sec (  2.450%)
 Dispersion                     ...        0 min,  0.034 sec (  5.951%)
 classical contributions        ...        0 min,  0.028 sec (  4.811%)
 integral evaluation            ...        0 min,  0.047 sec (  8.210%)
 iterations                     ...        0 min,  0.343 sec ( 59.830%)
 molecular gradient             ...        0 min,  0.107 sec ( 18.717%)
 printout                       ...        0 min,  0.000 sec (  0.024%)

         :::::::::::::::::::::::::::::::::::::::::::::::::::::
         ::                     SUMMARY                     ::
         :::::::::::::::::::::::::::::::::::::::::::::::::::::
         :: total energy             -17.265561198288 Eh    ::
         :: gradient norm              0.000905949781 Eh/a0 ::
         :: HOMO-LUMO gap              3.765533533398 eV    ::
         ::.................................................::
         :: SCC energy               -17.498449857967 Eh    ::
         :: -> isotropic ES            0.009033472127 Eh    ::
         :: -> anisotropic ES          0.001560408587 Eh    ::
         :: -> anisotropic XC          0.012378384224 Eh    ::
         :: -> dispersion             -0.008046037834 Eh    ::
         :: repulsion energy           0.232888659680 Eh    ::
         :: add. restraining           0.000000000000 Eh    ::
         :: total charge              -0.000000000000 e     ::
         :::::::::::::::::::::::::::::::::::::::::::::::::::::

           -------------------------------------------------
          |                Property Printout                |
           -------------------------------------------------

    * Orbital Energies and Occupations

         #    Occupation            Energy/Eh            Energy/eV
      -------------------------------------------------------------
         1        2.0000           -0.7370127             -20.0551
       ...           ...                  ...                  ...
         4        2.0000           -0.6090586             -16.5733
         5        2.0000           -0.5706621             -15.5285
         6        2.0000           -0.5622631             -15.3000
         7        2.0000           -0.5310031             -14.4493
         8        2.0000           -0.5163764             -14.0513
         9        2.0000           -0.4990611             -13.5801
        10        2.0000           -0.4893513             -13.3159
        11        2.0000           -0.4851085             -13.2005
        12        2.0000           -0.4670825             -12.7100
        13        2.0000           -0.4525556             -12.3147
        14        2.0000           -0.4094844             -11.1426
        15        2.0000           -0.3993437             -10.8667
        16        2.0000           -0.3967899             -10.7972 (HOMO)
        17                         -0.2584091              -7.0317 (LUMO)
        18                         -0.2076011              -5.6491
        19                         -0.1784769              -4.8566
        20                         -0.1254681              -3.4142
        21                          0.0130231               0.3544
        22                          0.0209707               0.5706
        23                          0.0440537               1.1988
        24                          0.1143923               3.1128
        25                          0.1501137               4.0848
        26                          0.1730521               4.7090
        27                          0.1922770               5.2321
       ...                                ...                  ...
        34                          0.6816220              18.5479
      -------------------------------------------------------------
                  HL-Gap            0.1383808 Eh            3.7655 eV
             Fermi-level           -0.3275995 Eh           -8.9144 eV

     #   Z          covCN         q      C6AA      α(0)
     1   6 C        3.772    -0.109    22.621     6.777
     2   6 C        3.002     0.023    27.473     8.598
     3   6 C        3.142    -0.068    29.426     8.876
     4   6 C        3.259     0.049    25.787     8.206
     5   7 N        1.850    -0.229    26.853     7.680
     6  16 S        2.514     0.088   137.504    19.736
     7   1 H        0.925     0.054     2.271     2.357
     8   1 H        0.925     0.058     2.218     2.329
     9   1 H        0.924     0.059     2.212     2.326
    10   1 H        0.926     0.035     2.513     2.479
    11   1 H        0.926     0.039     2.461     2.453

 Mol. C6AA /au·bohr⁶  :       2022.507292
 Mol. C8AA /au·bohr⁸  :      58954.948600
 Mol. α(0) /au        :         71.817240


Wiberg/Mayer (AO) data.
largest (>0.10) Wiberg bond orders for each atom

 ---------------------------------------------------------------------------
     #   Z sym  total        # sym  WBO       # sym  WBO       # sym  WBO
 ---------------------------------------------------------------------------
     1   6 C    3.995 --     2 C    1.042     7 H    0.980     8 H    0.970
                             9 H    0.966
     2   6 C    3.964 --     3 C    1.560     6 S    1.216     1 C    1.042
                             5 N    0.122
     3   6 C    3.984 --     2 C    1.560     4 C    1.298    10 H    0.966
     4   6 C    3.981 --     5 N    1.570     3 C    1.298    11 H    0.959
                             6 S    0.133
     5   7 N    3.087 --     4 C    1.570     6 S    1.327     2 C    0.122
     6  16 S    2.834 --     5 N    1.327     2 C    1.216     4 C    0.133
     7   1 H    0.997 --     1 C    0.980
     8   1 H    0.996 --     1 C    0.970
     9   1 H    0.996 --     1 C    0.966
    10   1 H    0.999 --     3 C    0.966
    11   1 H    0.998 --     4 C    0.959
 ---------------------------------------------------------------------------

Topologies differ in total number of bonds
Writing topology from bond orders to xtbtopo.mol

molecular dipole:
                 x           y           z       tot (Debye)
 q only:       -0.787      -0.267      -0.023
   full:       -0.929      -0.712      -0.109       2.988
molecular quadrupole (traceless):
                xx          xy          yy          xz          yz          zz
 q only:       -0.319      -2.936       0.310      -0.620       0.192       0.009
  q+dip:       -0.365      -5.128      -0.250      -1.062       0.031       0.615
   full:       -0.683      -5.040      -0.723      -0.997      -0.250       1.406

           -------------------------------------------------
          |                Geometry Summary                 |
           -------------------------------------------------

      molecular mass/u    :       99.1541380
   center of mass at/Å    :        0.4848090       0.6270878       0.1118691
  moments of inertia/u·Å² :        0.9005690E+02   0.1578084E+03   0.2447374E+03
rotational constants/cm⁻¹ :        0.1871887E+00   0.1068234E+00   0.6888049E-01

 * 11 selected distances

     #   Z          #   Z                                           value/Å
     1   6 C        2   6 C                                       1.4838290
     2   6 C        3   6 C                                       1.3674259
     3   6 C        4   6 C                                       1.4083093
     4   6 C        5   7 N                                       1.3048592
     2   6 C        6  16 S                                       1.7300223 (max)
     5   7 N        6  16 S                                       1.6312388
     1   6 C        7   1 H                                       1.0881978
     1   6 C        8   1 H                                       1.0897284
     1   6 C        9   1 H                                       1.0906292
     3   6 C       10   1 H                                       1.0742673 (min)
     4   6 C       11   1 H                                       1.0768962

 * 5 distinct bonds (by element types)

   Z      Z             #   av. dist./Å        max./Å        min./Å
   1 H    6 C           5     1.0839438     1.0906292     1.0742673
   6 C    6 C           3     1.4198547     1.4838290     1.3674259
   6 C    7 N           1     1.3048592     1.3048592     1.3048592
   6 C   16 S           1     1.7300223     1.7300223     1.7300223
   7 N   16 S           1     1.6312388     1.6312388     1.6312388


optimized geometry written to: xtbopt.xyz


           -------------------------------------------------
          | TOTAL ENERGY              -17.265561198288 Eh   |
          | GRADIENT NORM               0.000905949781 Eh/α |
          | HOMO-LUMO GAP               3.765533533398 eV   |
           -------------------------------------------------

------------------------------------------------------------------------
 * finished run on 2026/01/15 at 10:06:30.472     
------------------------------------------------------------------------
 total:
 * wall-time:     0 d,  0 h,  0 min, 18.439 sec
 *  cpu-time:     0 d,  0 h,  1 min, 18.403 sec
 * ratio c/w:     4.252 speedup
 SCF:
 * wall-time:     0 d,  0 h,  0 min,  0.976 sec
 *  cpu-time:     0 d,  0 h,  0 min,  5.592 sec
 * ratio c/w:     5.732 speedup
 ANC optimizer:
 * wall-time:     0 d,  0 h,  0 min, 17.370 sec
 *  cpu-time:     0 d,  0 h,  1 min, 12.516 sec
 * ratio c/w:     4.175 speedup

