14
 energy: -24.716546954066 gnorm: 0.000746396693 xtb: 6.7.1 (edcfbbe)
C           -1.96990898384112        0.68779270210582       -0.13273192610246
C           -0.54940567613518        0.24607822775135       -0.10118749499243
C            0.51570093185722        1.04813895235961       -0.01206746150477
C            1.86969942489348        0.56609649889248        0.00573078919942
N            2.21746725494759       -0.65886870551113       -0.12317368007732
N            1.30823602776827       -1.60186713564932       -0.31064298074781
S           -0.42644248667042       -1.57284494253464       -0.05980495453471
O           -0.72485669061864       -1.92947748972592        1.32172442032130
H           -2.50740538553757        0.24800624999538        0.70728607011866
H           -2.44930891957332        0.34059192115817       -1.04813196094354
H           -2.05104986456836        1.77057138500242       -0.07735485566781
H            0.37601839118911        2.12086938978433        0.03842210933632
H            2.68210834056165        1.26496973746233        0.12697738542725
H            1.70914863572729       -2.53005579109095       -0.33504645983207
