      -----------------------------------------------------------      
     |                   =====================                   |     
     |                           x T B                           |     
     |                   =====================                   |     
     |                         S. Grimme                         |     
     |          Mulliken Center for Theoretical Chemistry        |     
     |                    University of Bonn                     |     
      -----------------------------------------------------------      

   * xtb version 6.7.1 (edcfbbe) compiled by 'conda@c0858423619e' on 2025-09-04

   xtb is free software: you can redistribute it and/or modify it under
   the terms of the GNU Lesser General Public License as published by
   the Free Software Foundation, either version 3 of the License, or
   (at your option) any later version.
   
   xtb is distributed in the hope that it will be useful,
   but WITHOUT ANY WARRANTY; without even the implied warranty of
   MERCHANTABILITY or FITNESS FOR A PARTICULAR PURPOSE.  See the
   GNU Lesser General Public License for more details.
   
   Cite this work as:
   * C. Bannwarth, E. Caldeweyher, S. Ehlert, A. Hansen, P. Pracht,
     J. Seibert, S. Spicher, S. Grimme, WIREs Comput. Mol. Sci., 2020, 11,
     e01493. DOI: 10.1002/wcms.1493
   
   for GFN2-xTB:
   * C. Bannwarth, S. Ehlert and S. Grimme., J. Chem. Theory Comput., 2019,
     15, 1652-1671. DOI: 10.1021/acs.jctc.8b01176
   for GFN1-xTB:
   * S. Grimme, C. Bannwarth, P. Shushkov, J. Chem. Theory Comput., 2017,
     13, 1989-2009. DOI: 10.1021/acs.jctc.7b00118
   for GFN0-xTB:
   * P. Pracht, E. Caldeweyher, S. Ehlert, S. Grimme, ChemRxiv, 2019, preprint.
     DOI: 10.26434/chemrxiv.8326202.v1
   for GFN-FF:
   * S. Spicher and S. Grimme, Angew. Chem. Int. Ed., 2020, 59, 15665-15673.
     DOI: 10.1002/anie.202004239
   
   for ALPB and GBSA implicit solvation:
   * S. Ehlert, M. Stahn, S. Spicher, S. Grimme, J. Chem. Theory Comput.,
     2021, 17, 4250-4261. DOI: 10.1021/acs.jctc.1c00471
   
   for ddCOSMO and CPCM-X implicit solvation:
   * M. Stahn, S. Ehlert, S. Grimme, J. Phys. Chem. A,
     2023, XX, XXXX-XXXX. DOI: 10.1021/acs.jpca.3c04382
   
   for DFT-D4:
   * E. Caldeweyher, C. Bannwarth and S. Grimme, J. Chem. Phys., 2017,
     147, 034112. DOI: 10.1063/1.4993215
   * E. Caldeweyher, S. Ehlert, A. Hansen, H. Neugebauer, S. Spicher,
     C. Bannwarth and S. Grimme, J. Chem. Phys., 2019, 150, 154122.
     DOI: 10.1063/1.5090222
   * E. Caldeweyher, J.-M. Mewes, S. Ehlert and S. Grimme, Phys. Chem. Chem. Phys.
     2020, 22, 8499-8512. DOI: 10.1039/D0CP00502A
   
   for sTDA-xTB:
   * S. Grimme and C. Bannwarth, J. Chem. Phys., 2016, 145, 054103.
     DOI: 10.1063/1.4959605
   
   in the mass-spec context:
   * V. Asgeirsson, C. Bauer and S. Grimme, Chem. Sci., 2017, 8, 4879.
     DOI: 10.1039/c7sc00601b
   * J. Koopman and S. Grimme, ACS Omega 2019, 4, 12, 15120-15133.
     DOI: 10.1021/acsomega.9b02011
   
   for metadynamics refer to:
   * S. Grimme, J. Chem. Theory Comput., 2019, 155, 2847-2862
     DOI: 10.1021/acs.jctc.9b00143
   
   for SPH calculations refer to:
   * S. Spicher and S. Grimme, J. Chem. Theory Comput., 2021, 17, 1701-1714
     DOI: 10.1021/acs.jctc.0c01306
   
   for ONIOM refer to:
   * C. Plett, A. Katbashev, S. Ehlert, S. Grimme, M. Bursch,
     Phys. Chem. Chem. Phys., 2023, 25, 17860-17868. DOI: 10.1039/D3CP02178E
   
   for DIPRO refer to:
   * J. Kohn, N. Gildemeister, S. Grimme, D. Fazzi, A. Hansen,
     J. Chem. Phys., 2023, just accepted.
   
   for PTB refer to:
   * S. Grimme, M. Mueller, A. Hansen, J. Chem. Phys., 2023, 158, 124111.
     DOI: 10.1063/5.0137838
   
   with help from (in alphabetical order)
   P. Atkinson, C. Bannwarth, F. Bohle, G. Brandenburg, E. Caldeweyher
   M. Checinski, S. Dohm, S. Ehlert, S. Ehrlich, I. Gerasimov, C. Hölzer
   A. Katbashev, J. Kohn, J. Koopman, C. Lavigne, S. Lehtola, F. März, M. Müller,
   F. Musil, H. Neugebauer, J. Pisarek, C. Plett, P. Pracht, F. Pultar,
   J. Seibert, P. Shushkov, S. Spicher, M. Stahn, M. Steiner, T. Strunk,
   J. Stückrath, T. Rose, and J. Unsleber
   
 * started run on 2026/01/15 at 10:07:33.127     
   ID    Z sym.   atoms
    1    6 C      1-4
    2    7 N      5, 6
    3   16 S      7
    4    8 O      8
    5    1 H      9-14

           -------------------------------------------------
          |                Calculation Setup                |
           -------------------------------------------------

          program call               : /h/28/cicsy/miniforge3/envs/elagente/bin/xtb NH_TDSO_intermediate.xyz --opt --gfn 2 -P 4 --chrg 0
          coordinate file            : NH_TDSO_intermediate.xyz
          omp threads                :                     4


           -------------------------------------------------
          |                 G F N 2 - x T B                 |
           -------------------------------------------------

        Reference                      10.1021/acs.jctc.8b01176
      * Hamiltonian:
        H0-scaling (s, p, d)           1.850000    2.230000    2.230000
        zeta-weighting                 0.500000
      * Dispersion:
        s8                             2.700000
        a1                             0.520000
        a2                             5.000000
        s9                             5.000000
      * Repulsion:
        kExp                           1.500000    1.000000
        rExp                           1.000000
      * Coulomb:
        alpha                          2.000000
        third order                    shell-resolved
        anisotropic                    true
        a3                             3.000000
        a5                             4.000000
        cn-shift                       1.200000
        cn-exp                         4.000000
        max-rad                        5.000000


          ...................................................
          :                      SETUP                      :
          :.................................................:
          :  # basis functions                  44          :
          :  # atomic orbitals                  43          :
          :  # shells                           23          :
          :  # electrons                        44          :
          :  max. iterations                   250          :
          :  Hamiltonian                  GFN2-xTB          :
          :  restarted?                      false          :
          :  GBSA solvation                  false          :
          :  PC potential                    false          :
          :  electronic temp.          300.0000000     K    :
          :  accuracy                    1.0000000          :
          :  -> integral cutoff          0.2500000E+02      :
          :  -> integral neglect         0.1000000E-07      :
          :  -> SCF convergence          0.1000000E-05 Eh   :
          :  -> wf. convergence          0.1000000E-03 e    :
          :  Broyden damping             0.4000000          :
          :  net charge                          0          :
          :  unpaired electrons                  0          :
          ...................................................

 iter      E             dE          RMSdq      gap      omega  full diag
   1    -24.8658892 -0.248659E+02  0.518E+00    2.71       0.0  T
   2    -24.9137948 -0.479056E-01  0.398E+00    2.88       1.0  T
   3    -24.9293523 -0.155575E-01  0.196E+00    2.65       1.0  T
   4    -24.9305913 -0.123898E-02  0.906E-01    2.73       1.0  T
   5    -24.9358532 -0.526193E-02  0.296E-01    2.64       1.0  T
   6    -24.9358790 -0.258120E-04  0.587E-02    2.65       1.0  T
   7    -24.9358794 -0.373806E-06  0.456E-02    2.64       1.0  T
   8    -24.9358881 -0.869191E-05  0.251E-02    2.64       1.1  T
   9    -24.9358887 -0.610528E-06  0.597E-03    2.64       4.5  T
  10    -24.9358889 -0.187245E-06  0.325E-03    2.64       8.2  T
  11    -24.9358889 -0.613412E-08  0.928E-04    2.64      28.8  T
  12    -24.9358889 -0.235319E-08  0.343E-04    2.64      77.9  T

   *** convergence criteria satisfied after 12 iterations ***

         #    Occupation            Energy/Eh            Energy/eV
      -------------------------------------------------------------
         1        2.0000           -0.7615851             -20.7238
       ...           ...                  ...                  ...
        16        2.0000           -0.4774238             -12.9914
        17        2.0000           -0.4697676             -12.7830
        18        2.0000           -0.4478294             -12.1861
        19        2.0000           -0.4248397             -11.5605
        20        2.0000           -0.3945746             -10.7369
        21        2.0000           -0.3876830             -10.5494
        22        2.0000           -0.3801222             -10.3437 (HOMO)
        23                         -0.2830276              -7.7016 (LUMO)
        24                         -0.2230352              -6.0691
        25                         -0.2007396              -5.4624
        26                         -0.1549913              -4.2175
        27                         -0.0968338              -2.6350
       ...                                ...                  ...
        43                          0.7673577              20.8809
      -------------------------------------------------------------
                  HL-Gap            0.0970946 Eh            2.6421 eV
             Fermi-level           -0.3315749 Eh           -9.0226 eV

 SCC (total)                   0 d,  0 h,  0 min,  1.287 sec
 SCC setup                      ...        0 min,  0.007 sec (  0.555%)
 Dispersion                     ...        0 min,  0.031 sec (  2.419%)
 classical contributions        ...        0 min,  0.015 sec (  1.167%)
 integral evaluation            ...        0 min,  0.042 sec (  3.250%)
 iterations                     ...        0 min,  1.189 sec ( 92.375%)
 molecular gradient             ...        0 min,  0.002 sec (  0.157%)
 printout                       ...        0 min,  0.001 sec (  0.076%)

         :::::::::::::::::::::::::::::::::::::::::::::::::::::
         ::                     SUMMARY                     ::
         :::::::::::::::::::::::::::::::::::::::::::::::::::::
         :: total energy             -24.693857014368 Eh    ::
         :: gradient norm              0.122285639107 Eh/a0 ::
         :: HOMO-LUMO gap              2.642079076588 eV    ::
         ::.................................................::
         :: SCC energy               -24.935857784628 Eh    ::
         :: -> isotropic ES            0.052547053155 Eh    ::
         :: -> anisotropic ES          0.001113156024 Eh    ::
         :: -> anisotropic XC          0.017740946132 Eh    ::
         :: -> dispersion             -0.012089901904 Eh    ::
         :: repulsion energy           0.242000770261 Eh    ::
         :: add. restraining           0.000000000000 Eh    ::
         :: total charge              -0.000000000000 e     ::
         :::::::::::::::::::::::::::::::::::::::::::::::::::::

      ----------------------------------------------------------- 
     |                   =====================                   |
     |                        A N C O P T                        |
     |                   =====================                   |
     |               Approximate Normal Coordinate               |
     |                Rational Function Optimizer                |
      ----------------------------------------------------------- 
      ----------------------------------------------------------- 
     |                   =====================                   |
     |                        A N C O P T                        |
     |                   =====================                   |
     |               Approximate Normal Coordinate               |
     |                Rational Function Optimizer                |
      ----------------------------------------------------------- 

          ...................................................
          :                      SETUP                      :
          :.................................................:
          :   optimization level            normal          :
          :   max. optcycles                   200          :
          :   ANC micro-cycles                  20          :
          :   degrees of freedom                36          :
          :.................................................:
          :   RF solver                   davidson          :
          :   write xtbopt.log                true          :
          :   linear?                        false          :
          :   energy convergence         0.5000000E-05 Eh   :
          :   grad. convergence          0.1000000E-02 Eh/α :
          :   maxmium RF displ.          1.0000000          :
          :   Hlow (freq-cutoff)         0.1000000E-01      :
          :   Hmax (freq-cutoff)         5.0000000          :
          :   S6 in model hess.         20.0000000          :
          ...................................................

generating ANC from exact Hessian ...
Using Lindh-Hessian (1995)
 Shifting diagonal of input Hessian by    3.5443191797993002E-003
 Lowest  eigenvalues of input Hessian
    0.000000    0.000000    0.000000    0.000000    0.000000    0.000000
    0.010000    0.011192    0.016403    0.019649    0.022719    0.038400
    0.041812    0.058584    0.065358    0.068158    0.079991    0.092041
 Highest eigenvalues
    1.347606    1.359604    1.592024    1.872924    1.996446    2.110041


........................................................................
.............................. CYCLE    1 ..............................
........................................................................

 iter      E             dE          RMSdq      gap      omega  full diag
   1    -24.9358889 -0.249359E+02  0.951E-05    2.64       0.0  T
   2    -24.9358889 -0.211777E-10  0.660E-05    2.64     404.9  T
   3    -24.9358889 -0.830624E-11  0.393E-05    2.64     680.1  T
     SCC iter.                  ...        0 min,  0.089 sec
     gradient                   ...        0 min,  0.002 sec
 * total energy  :   -24.6938570 Eh     change       -0.2063132E-09 Eh
   gradient norm :     0.1222866 Eh/α   predicted     0.0000000E+00 (-100.00%)
   displ. norm   :     0.3255569 α      lambda       -0.2348864E-01
   maximum displ.:     0.1676541 α      in ANC's #20, #16, #13, ...

........................................................................
.............................. CYCLE    2 ..............................
........................................................................

 iter      E             dE          RMSdq      gap      omega  full diag
   1    -24.9767569 -0.249768E+02  0.563E-01    2.77       0.0  T
   2    -24.9771013 -0.344377E-03  0.390E-01    2.86       1.0  T
   3    -24.9773733 -0.271978E-03  0.212E-01    2.81       1.0  T
   4    -24.9775146 -0.141293E-03  0.778E-02    2.83       1.0  T
   5    -24.9775437 -0.291155E-04  0.314E-02    2.83       1.0  T
   6    -24.9775467 -0.301171E-05  0.182E-02    2.83       1.5  T
   7    -24.9775486 -0.193929E-05  0.400E-03    2.83       6.7  T
   8    -24.9775486 -0.868409E-08  0.193E-03    2.83      13.9  T
   9    -24.9775486 -0.579809E-08  0.565E-04    2.83      47.3  T
  10    -24.9775486 -0.261824E-09  0.234E-04    2.83     114.1  T
     SCC iter.                  ...        0 min,  0.567 sec
     gradient                   ...        0 min,  0.003 sec
 * total energy  :   -24.7102607 Eh     change       -0.1640372E-01 Eh
   gradient norm :     0.0669408 Eh/α   predicted    -0.1298907E-01 ( -20.82%)
   displ. norm   :     0.2530301 α      lambda       -0.7497496E-02
   maximum displ.:     0.1480556 α      in ANC's #4, #16, #20, ...

........................................................................
.............................. CYCLE    3 ..............................
........................................................................

 iter      E             dE          RMSdq      gap      omega  full diag
   1    -24.9949672 -0.249950E+02  0.433E-01    2.85       0.0  T
   2    -24.9953470 -0.379769E-03  0.323E-01    2.92       1.0  T
   3    -24.9957465 -0.399517E-03  0.150E-01    2.89       1.0  T
   4    -24.9957527 -0.619316E-05  0.830E-02    2.90       1.0  T
   5    -24.9957866 -0.338629E-04  0.261E-02    2.90       1.0  T
   6    -24.9957906 -0.401980E-05  0.131E-02    2.90       2.0  T
   7    -24.9957913 -0.710768E-06  0.261E-03    2.90      10.2  T
   8    -24.9957913 -0.792148E-08  0.131E-03    2.90      20.4  T
   9    -24.9957913 -0.276421E-08  0.392E-04    2.90      68.1  T
  10    -24.9957913 -0.196227E-09  0.184E-04    2.90     145.1  T
     SCC iter.                  ...        0 min,  0.578 sec
     gradient                   ...        0 min,  0.050 sec
 * total energy  :   -24.7143266 Eh     change       -0.4065839E-02 Eh
   gradient norm :     0.0210382 Eh/α   predicted    -0.3988756E-02 (  -1.90%)
   displ. norm   :     0.1368867 α      lambda       -0.7985575E-03
   maximum displ.:     0.1173114 α      in ANC's #4, #7, #2, ...

........................................................................
.............................. CYCLE    4 ..............................
........................................................................

 iter      E             dE          RMSdq      gap      omega  full diag
   1    -24.9936120 -0.249936E+02  0.122E-01    2.89       0.0  T
   2    -24.9936486 -0.365222E-04  0.751E-02    2.89       1.0  T
   3    -24.9936520 -0.343327E-05  0.395E-02    2.89       1.0  T
   4    -24.9936507  0.132374E-05  0.150E-02    2.89       1.8  T
   5    -24.9936529 -0.218379E-05  0.471E-03    2.89       5.7  T
   6    -24.9936529 -0.138491E-07  0.176E-03    2.89      15.2  T
   7    -24.9936529 -0.210866E-07  0.646E-04    2.89      41.4  T
   8    -24.9936529 -0.280655E-08  0.291E-04    2.89      91.7  T
     SCC iter.                  ...        0 min,  0.561 sec
     gradient                   ...        0 min,  0.089 sec
 * total energy  :   -24.7148532 Eh     change       -0.5266683E-03 Eh
   gradient norm :     0.0074401 Eh/α   predicted    -0.4067612E-03 ( -22.77%)
   displ. norm   :     0.0878639 α      lambda       -0.1884737E-03
   maximum displ.:     0.0722013 α      in ANC's #4, #3, #6, ...

........................................................................
.............................. CYCLE    5 ..............................
........................................................................

 iter      E             dE          RMSdq      gap      omega  full diag
   1    -24.9926801 -0.249927E+02  0.739E-02    2.90       0.0  T
   2    -24.9926885 -0.840022E-05  0.436E-02    2.89       1.0  T
   3    -24.9926908 -0.226230E-05  0.253E-02    2.90       1.1  T
   4    -24.9926917 -0.911473E-06  0.123E-02    2.89       2.2  T
   5    -24.9926927 -0.100475E-05  0.338E-03    2.90       7.9  T
   6    -24.9926927 -0.571961E-07  0.178E-03    2.90      15.0  T
   7    -24.9926928 -0.186959E-07  0.283E-04    2.90      94.5  T
   8    -24.9926928 -0.403482E-10  0.126E-04    2.90     212.3  T
     SCC iter.                  ...        0 min,  0.492 sec
     gradient                   ...        0 min,  0.011 sec
 * total energy  :   -24.7149598 Eh     change       -0.1065113E-03 Eh
   gradient norm :     0.0037381 Eh/α   predicted    -0.9496415E-04 ( -10.84%)
   displ. norm   :     0.0478675 α      lambda       -0.3799133E-04
   maximum displ.:     0.0313347 α      in ANC's #1, #4, #3, ...

........................................................................
.............................. CYCLE    6 ..............................
........................................................................

 iter      E             dE          RMSdq      gap      omega  full diag
   1    -24.9929020 -0.249929E+02  0.332E-02    2.90       0.0  T
   2    -24.9929025 -0.518907E-06  0.207E-02    2.90       1.3  T
   3    -24.9929032 -0.650041E-06  0.134E-02    2.90       2.0  T
   4    -24.9929042 -0.100972E-05  0.298E-03    2.90       9.0  T
   5    -24.9929042 -0.338198E-07  0.148E-03    2.90      18.1  T
   6    -24.9929042 -0.808908E-08  0.645E-04    2.90      41.4  T
   7    -24.9929042 -0.266905E-08  0.124E-04    2.90     216.0  T
     SCC iter.                  ...        0 min,  0.306 sec
     gradient                   ...        0 min,  0.065 sec
 * total energy  :   -24.7149903 Eh     change       -0.3059564E-04 Eh
   gradient norm :     0.0030931 Eh/α   predicted    -0.1903906E-04 ( -37.77%)
   displ. norm   :     0.1148096 α      lambda       -0.6837516E-04
   maximum displ.:     0.0798673 α      in ANC's #1, #3, #4, ...

........................................................................
.............................. CYCLE    7 ..............................
........................................................................

 iter      E             dE          RMSdq      gap      omega  full diag
   1    -24.9933826 -0.249934E+02  0.695E-02    2.92       0.0  T
   2    -24.9933844 -0.171865E-05  0.417E-02    2.91       1.0  T
   3    -24.9933849 -0.578791E-06  0.293E-02    2.91       1.0  T
   4    -24.9933907 -0.578917E-05  0.520E-03    2.91       5.1  T
   5    -24.9933908 -0.503905E-07  0.302E-03    2.91       8.8  T
   6    -24.9933908 -0.376272E-07  0.105E-03    2.91      25.4  T
   7    -24.9933908 -0.679581E-08  0.350E-04    2.91      76.4  T
   8    -24.9933908 -0.925731E-10  0.133E-04    2.91     200.2  T
     SCC iter.                  ...        0 min,  0.550 sec
     gradient                   ...        0 min,  0.102 sec
 * total energy  :   -24.7150393 Eh     change       -0.4899110E-04 Eh
   gradient norm :     0.0027606 Eh/α   predicted    -0.3463934E-04 ( -29.29%)
   displ. norm   :     0.1107280 α      lambda       -0.4238683E-04
   maximum displ.:     0.0766010 α      in ANC's #1, #3, #2, ...

........................................................................
.............................. CYCLE    8 ..............................
........................................................................

 iter      E             dE          RMSdq      gap      omega  full diag
   1    -24.9934471 -0.249934E+02  0.601E-02    2.92       0.0  T
   2    -24.9934483 -0.114540E-05  0.335E-02    2.92       1.0  T
   3    -24.9934450  0.325180E-05  0.255E-02    2.92       1.0  T
   4    -24.9934505 -0.553783E-05  0.439E-03    2.92       6.1  T
   5    -24.9934506 -0.961007E-08  0.214E-03    2.92      12.5  T
   6    -24.9934506 -0.108954E-07  0.895E-04    2.92      29.9  T
   7    -24.9934506 -0.497610E-08  0.412E-04    2.92      64.9  T
     SCC iter.                  ...        0 min,  0.619 sec
     gradient                   ...        0 min,  0.055 sec
 * total energy  :   -24.7150716 Eh     change       -0.3229166E-04 Eh
   gradient norm :     0.0032274 Eh/α   predicted    -0.2145397E-04 ( -33.56%)
   displ. norm   :     0.1297405 α      lambda       -0.4102855E-04
   maximum displ.:     0.0843128 α      in ANC's #1, #3, #2, ...

........................................................................
.............................. CYCLE    9 ..............................
........................................................................

 iter      E             dE          RMSdq      gap      omega  full diag
   1    -24.9933388 -0.249933E+02  0.644E-02    2.93       0.0  T
   2    -24.9933402 -0.146522E-05  0.343E-02    2.92       1.0  T
   3    -24.9933374  0.287568E-05  0.203E-02    2.92       1.3  T
   4    -24.9933413 -0.388862E-05  0.556E-03    2.92       4.8  T
   5    -24.9933413 -0.662865E-07  0.255E-03    2.92      10.5  T
   6    -24.9933413 -0.719086E-08  0.104E-03    2.92      25.7  T
   7    -24.9933413 -0.554707E-08  0.552E-04    2.92      48.4  T
   8    -24.9933413 -0.554156E-09  0.155E-04    2.92     172.9  T
     SCC iter.                  ...        0 min,  0.572 sec
     gradient                   ...        0 min,  0.080 sec
 * total energy  :   -24.7151023 Eh     change       -0.3067251E-04 Eh
   gradient norm :     0.0034316 Eh/α   predicted    -0.2086012E-04 ( -31.99%)
   displ. norm   :     0.1474296 α      lambda       -0.3698246E-04
   maximum displ.:     0.0878482 α      in ANC's #3, #1, #2, ...

........................................................................
.............................. CYCLE   10 ..............................
........................................................................

 iter      E             dE          RMSdq      gap      omega  full diag
   1    -24.9930687 -0.249931E+02  0.700E-02    2.93       0.0  T
   2    -24.9930709 -0.224807E-05  0.372E-02    2.93       1.0  T
   3    -24.9930701  0.872893E-06  0.155E-02    2.92       1.7  T
   4    -24.9930717 -0.159558E-05  0.651E-03    2.92       4.1  T
   5    -24.9930718 -0.164532E-06  0.328E-03    2.92       8.1  T
   6    -24.9930718 -0.100109E-07  0.160E-03    2.92      16.8  T
   7    -24.9930719 -0.179018E-07  0.697E-04    2.92      38.3  T
   8    -24.9930719 -0.980329E-09  0.173E-04    2.92     154.8  T
     SCC iter.                  ...        0 min,  0.677 sec
     gradient                   ...        0 min,  0.064 sec
 * total energy  :   -24.7151277 Eh     change       -0.2536418E-04 Eh
   gradient norm :     0.0032259 Eh/α   predicted    -0.1889516E-04 ( -25.50%)
   displ. norm   :     0.0916298 α      lambda       -0.2383760E-04
   maximum displ.:     0.0612841 α      in ANC's #3, #2, #1, ...

........................................................................
.............................. CYCLE   11 ..............................
........................................................................

 iter      E             dE          RMSdq      gap      omega  full diag
   1    -24.9933003 -0.249933E+02  0.437E-02    2.92       0.0  T
   2    -24.9933017 -0.142461E-05  0.240E-02    2.92       1.1  T
   3    -24.9933015  0.196707E-06  0.155E-02    2.92       1.7  T
   4    -24.9933027 -0.111990E-05  0.509E-03    2.92       5.3  T
   5    -24.9933027 -0.885656E-07  0.272E-03    2.92       9.8  T
   6    -24.9933028 -0.194976E-07  0.148E-03    2.92      18.1  T
   7    -24.9933028 -0.140424E-07  0.420E-04    2.92      63.7  T
   8    -24.9933028 -0.115499E-09  0.140E-04    2.92     190.4  T
     SCC iter.                  ...        0 min,  0.629 sec
     gradient                   ...        0 min,  0.078 sec
 * total energy  :   -24.7151445 Eh     change       -0.1680964E-04 Eh
   gradient norm :     0.0024437 Eh/α   predicted    -0.1201837E-04 ( -28.50%)
   displ. norm   :     0.1164088 α      lambda       -0.2103855E-04
   maximum displ.:     0.0782504 α      in ANC's #3, #2, #1, ...

........................................................................
.............................. CYCLE   12 ..............................
........................................................................

 iter      E             dE          RMSdq      gap      omega  full diag
   1    -24.9930645 -0.249931E+02  0.547E-02    2.92       0.0  T
   2    -24.9930663 -0.180309E-05  0.292E-02    2.92       1.0  T
   3    -24.9930657  0.638278E-06  0.172E-02    2.92       1.6  T
   4    -24.9930672 -0.151399E-05  0.575E-03    2.92       4.6  T
   5    -24.9930673 -0.113655E-06  0.301E-03    2.92       8.9  T
   6    -24.9930673 -0.584440E-08  0.173E-03    2.92      15.5  T
   7    -24.9930673 -0.251508E-07  0.486E-04    2.92      55.0  T
   8    -24.9930673 -0.145317E-09  0.160E-04    2.92     167.5  T
     SCC iter.                  ...        0 min,  0.344 sec
     gradient                   ...        0 min,  0.091 sec
 * total energy  :   -24.7151581 Eh     change       -0.1365919E-04 Eh
   gradient norm :     0.0016091 Eh/α   predicted    -0.1066073E-04 ( -21.95%)
   displ. norm   :     0.1337401 α      lambda       -0.2039551E-04
   maximum displ.:     0.0929614 α      in ANC's #2, #3, #4, ...

........................................................................
.............................. CYCLE   13 ..............................
........................................................................

 iter      E             dE          RMSdq      gap      omega  full diag
   1    -24.9936532 -0.249937E+02  0.637E-02    2.91       0.0  T
   2    -24.9936557 -0.247107E-05  0.339E-02    2.92       1.0  T
   3    -24.9936550  0.635536E-06  0.228E-02    2.91       1.2  T
   4    -24.9936576 -0.260039E-05  0.666E-03    2.92       4.0  T
   5    -24.9936577 -0.105530E-06  0.367E-03    2.92       7.3  T
   6    -24.9936578 -0.624782E-07  0.173E-03    2.92      15.4  T
   7    -24.9936578 -0.177668E-07  0.495E-04    2.92      54.0  T
   8    -24.9936578 -0.132875E-09  0.190E-04    2.92     140.9  T
     SCC iter.                  ...        0 min,  0.476 sec
     gradient                   ...        0 min,  0.012 sec
 * total energy  :   -24.7151740 Eh     change       -0.1589502E-04 Eh
   gradient norm :     0.0036355 Eh/α   predicted    -0.1028014E-04 ( -35.32%)
   displ. norm   :     0.0784844 α      lambda       -0.1846769E-04
   maximum displ.:     0.0585781 α      in ANC's #2, #3, #4, ...

........................................................................
.............................. CYCLE   14 ..............................
........................................................................

 iter      E             dE          RMSdq      gap      omega  full diag
   1    -24.9934860 -0.249935E+02  0.322E-02    2.92       0.0  T
   2    -24.9934863 -0.345625E-06  0.173E-02    2.92       1.5  T
   3    -24.9934858  0.538409E-06  0.889E-03    2.92       3.0  T
   4    -24.9934865 -0.736191E-06  0.320E-03    2.91       8.3  T
   5    -24.9934865 -0.141086E-07  0.177E-03    2.92      15.1  T
   6    -24.9934866 -0.170686E-07  0.562E-04    2.91      47.6  T
   7    -24.9934866 -0.131292E-08  0.256E-04    2.92     104.5  T
     SCC iter.                  ...        0 min,  0.345 sec
     gradient                   ...        0 min,  0.077 sec
 * total energy  :   -24.7151910 Eh     change       -0.1693353E-04 Eh
   gradient norm :     0.0030716 Eh/α   predicted    -0.9289445E-05 ( -45.14%)
   displ. norm   :     0.1143468 α      lambda       -0.5291736E-04
   maximum displ.:     0.0880452 α      in ANC's #2, #1, #4, ...

........................................................................
.............................. CYCLE   15 ..............................
........................................................................

 iter      E             dE          RMSdq      gap      omega  full diag
   1    -24.9940770 -0.249941E+02  0.408E-02    2.92       0.0  T
   2    -24.9940773 -0.307568E-06  0.240E-02    2.92       1.1  T
   3    -24.9940753  0.196170E-05  0.173E-02    2.92       1.5  T
   4    -24.9940779 -0.255348E-05  0.278E-03    2.92       9.6  T
   5    -24.9940779 -0.169947E-07  0.113E-03    2.92      23.7  T
   6    -24.9940779 -0.126895E-08  0.298E-04    2.92      89.6  T
   7    -24.9940779 -0.140734E-09  0.158E-04    2.92     169.6  T
     SCC iter.                  ...        0 min,  0.425 sec
     gradient                   ...        0 min,  0.043 sec
 * total energy  :   -24.7152285 Eh     change       -0.3753317E-04 Eh
   gradient norm :     0.0037395 Eh/α   predicted    -0.2680396E-04 ( -28.59%)
   displ. norm   :     0.3558323 α      lambda       -0.1070969E-03
   maximum displ.:     0.2939432 α      in ANC's #2, #3, #4, ...

........................................................................
.............................. CYCLE   16 ..............................
........................................................................

 iter      E             dE          RMSdq      gap      omega  full diag
   1    -24.9908548 -0.249909E+02  0.135E-01    2.91       0.0  T
   2    -24.9908613 -0.654226E-05  0.762E-02    2.91       1.0  T
   3    -24.9908424  0.189545E-04  0.534E-02    2.91       1.0  T
   4    -24.9908678 -0.253928E-04  0.127E-02    2.91       2.1  T
   5    -24.9908679 -0.112830E-06  0.540E-03    2.91       5.0  T
   6    -24.9908679 -0.401312E-07  0.134E-03    2.91      19.9  T
   7    -24.9908679 -0.510319E-08  0.839E-04    2.91      31.9  T
   8    -24.9908679 -0.135275E-08  0.249E-04    2.91     107.4  T
     SCC iter.                  ...        0 min,  0.477 sec
     gradient                   ...        0 min,  0.065 sec
 * total energy  :   -24.7152367 Eh     change       -0.8219372E-05 Eh
   gradient norm :     0.0099514 Eh/α   predicted    -0.6032914E-04 ( 633.99%)
   displ. norm   :     0.1495226 α      lambda       -0.1565049E-03
   maximum displ.:     0.1179588 α      in ANC's #2, #3, #4, ...

........................................................................
.............................. CYCLE   17 ..............................
........................................................................

 iter      E             dE          RMSdq      gap      omega  full diag
   1    -24.9934837 -0.249935E+02  0.644E-02    2.91       0.0  T
   2    -24.9934862 -0.254794E-05  0.363E-02    2.91       1.0  T
   3    -24.9934825  0.375600E-05  0.236E-02    2.91       1.1  T
   4    -24.9934874 -0.493408E-05  0.625E-03    2.91       4.3  T
   5    -24.9934875 -0.639299E-07  0.296E-03    2.91       9.0  T
   6    -24.9934875 -0.736156E-08  0.110E-03    2.91      24.4  T
   7    -24.9934875 -0.106664E-07  0.410E-04    2.91      65.2  T
   8    -24.9934875 -0.888853E-10  0.123E-04    2.91     217.5  T
     SCC iter.                  ...        0 min,  0.517 sec
     gradient                   ...        0 min,  0.074 sec
 * total energy  :   -24.7152967 Eh     change       -0.5997607E-04 Eh
   gradient norm :     0.0033006 Eh/α   predicted    -0.8000371E-04 (  33.39%)
   displ. norm   :     0.1047053 α      lambda       -0.4833747E-04
   maximum displ.:     0.0898069 α      in ANC's #2, #3, #1, ...

........................................................................
.............................. CYCLE   18 ..............................
........................................................................

 iter      E             dE          RMSdq      gap      omega  full diag
   1    -24.9935123 -0.249935E+02  0.354E-02    2.91       0.0  T
   2    -24.9935129 -0.569592E-06  0.212E-02    2.91       1.3  T
   3    -24.9935125  0.433816E-06  0.114E-02    2.91       2.4  T
   4    -24.9935131 -0.622245E-06  0.365E-03    2.91       7.3  T
   5    -24.9935132 -0.845389E-07  0.132E-03    2.91      20.3  T
   6    -24.9935132 -0.256896E-08  0.835E-04    2.91      32.0  T
   7    -24.9935132 -0.565753E-08  0.214E-04    2.91     124.9  T
     SCC iter.                  ...        0 min,  0.247 sec
     gradient                   ...        0 min,  0.001 sec
 * total energy  :   -24.7153431 Eh     change       -0.4639173E-04 Eh
   gradient norm :     0.0038988 Eh/α   predicted    -0.2443281E-04 ( -47.33%)
   displ. norm   :     0.8180756 α      lambda       -0.3616548E-03
   maximum displ.:     0.6999564 α      in ANC's #2, #3, #1, ...

........................................................................
.............................. CYCLE   19 ..............................
........................................................................

 iter      E             dE          RMSdq      gap      omega  full diag
   1    -24.9818270 -0.249818E+02  0.304E-01    2.90       0.0  T
   2    -24.9818876 -0.605960E-04  0.171E-01    2.91       1.0  T
   3    -24.9818712  0.163331E-04  0.712E-02    2.90       1.0  T
   4    -24.9818973 -0.260557E-04  0.273E-02    2.91       1.0  T
   5    -24.9819010 -0.373136E-05  0.107E-02    2.91       2.5  T
   6    -24.9819011 -0.101423E-06  0.342E-03    2.91       7.8  T
   7    -24.9819011 -0.175876E-07  0.222E-03    2.91      12.0  T
   8    -24.9819012 -0.221611E-07  0.108E-03    2.91      24.8  T
   9    -24.9819012 -0.427850E-08  0.399E-04    2.91      67.0  T
  10    -24.9819012 -0.165453E-09  0.127E-04    2.91     210.3  T
     SCC iter.                  ...        0 min,  0.574 sec
     gradient                   ...        0 min,  0.002 sec
 * total energy  :   -24.7141141 Eh     change        0.1228980E-02 Eh
   gradient norm :     0.0335867 Eh/α   predicted    -0.3018403E-03 (-124.56%)
   displ. norm   :     0.4623898 α      lambda       -0.3619007E-02
   maximum displ.:     0.3976429 α      in ANC's #2, #3, #1, ...

........................................................................
.............................. CYCLE   20 ..............................
........................................................................

 iter      E             dE          RMSdq      gap      omega  full diag
   1    -24.9937733 -0.249938E+02  0.208E-01    2.92       0.0  T
   2    -24.9938146 -0.412539E-04  0.114E-01    2.92       1.0  T
   3    -24.9938061  0.844346E-05  0.497E-02    2.91       1.0  T
   4    -24.9938164 -0.102536E-04  0.217E-02    2.91       1.2  T
   5    -24.9938201 -0.375984E-05  0.927E-03    2.91       2.9  T
   6    -24.9938203 -0.154324E-06  0.417E-03    2.91       6.4  T
   7    -24.9938205 -0.147780E-06  0.126E-03    2.91      21.3  T
   8    -24.9938205 -0.889688E-09  0.584E-04    2.91      45.8  T
   9    -24.9938205 -0.392024E-09  0.239E-04    2.91     111.9  T
     SCC iter.                  ...        0 min,  0.426 sec
     gradient                   ...        0 min,  0.058 sec
 * total energy  :   -24.7155137 Eh     change       -0.1399567E-02 Eh
   gradient norm :     0.0048862 Eh/α   predicted    -0.2196390E-02 (  56.93%)
   displ. norm   :     0.0459201 α      lambda       -0.4140074E-04
   maximum displ.:     0.0301220 α      in ANC's #2, #1, #3, ...
 * RMSD in coord.:     0.4709190 α      energy gain  -0.2165666E-01 Eh

generating ANC from exact Hessian ...
Using Lindh-Hessian (1995)
 Shifting diagonal of input Hessian by    3.4420610607966305E-003
 Lowest  eigenvalues of input Hessian
    0.000000    0.000000    0.000000    0.000000    0.000000    0.000000
    0.010000    0.012022    0.018380    0.019633    0.025518    0.041940
    0.048780    0.069341    0.075209    0.078506    0.089416    0.102252
 Highest eigenvalues
    1.391313    1.443441    1.793435    1.984322    2.187288    2.571285


........................................................................
.............................. CYCLE   21 ..............................
........................................................................

 iter      E             dE          RMSdq      gap      omega  full diag
   1    -24.9939643 -0.249940E+02  0.219E-02    2.91       0.0  T
   2    -24.9939646 -0.356422E-06  0.144E-02    2.91       1.9  T
   3    -24.9939646  0.815395E-07  0.933E-03    2.91       2.9  T
   4    -24.9939649 -0.372841E-06  0.287E-03    2.91       9.3  T
   5    -24.9939650 -0.416967E-07  0.138E-03    2.91      19.3  T
   6    -24.9939650 -0.276700E-09  0.787E-04    2.91      34.0  T
   7    -24.9939650 -0.509544E-08  0.206E-04    2.91     129.8  T
     SCC iter.                  ...        0 min,  0.460 sec
     gradient                   ...        0 min,  0.074 sec
 * total energy  :   -24.7155508 Eh     change       -0.3710381E-04 Eh
   gradient norm :     0.0040728 Eh/α   predicted     0.0000000E+00 (-100.00%)
   displ. norm   :     0.0618851 α      lambda       -0.6282736E-04
   maximum displ.:     0.0428728 α      in ANC's #1, #2, #3, ...

........................................................................
.............................. CYCLE   22 ..............................
........................................................................

 iter      E             dE          RMSdq      gap      omega  full diag
   1    -24.9943819 -0.249944E+02  0.232E-02    2.92       0.0  T
   2    -24.9943821 -0.241532E-06  0.142E-02    2.91       1.9  T
   3    -24.9943817  0.365864E-06  0.817E-03    2.92       3.3  T
   4    -24.9943822 -0.474286E-06  0.240E-03    2.92      11.1  T
   5    -24.9943822 -0.296849E-07  0.927E-04    2.92      28.8  T
   6    -24.9943822 -0.366551E-09  0.496E-04    2.92      53.9  T
     SCC iter.                  ...        0 min,  0.265 sec
     gradient                   ...        0 min,  0.078 sec
 * total energy  :   -24.7156076 Eh     change       -0.5683401E-04 Eh
   gradient norm :     0.0023015 Eh/α   predicted    -0.3153292E-04 ( -44.52%)
   displ. norm   :     0.1931019 α      lambda       -0.1634634E-03
   maximum displ.:     0.1446315 α      in ANC's #2, #1, #3, ...

........................................................................
.............................. CYCLE   23 ..............................
........................................................................

 iter      E             dE          RMSdq      gap      omega  full diag
   1    -24.9942809 -0.249943E+02  0.666E-02    2.93       0.0  T
   2    -24.9942825 -0.160737E-05  0.420E-02    2.92       1.0  T
   3    -24.9942791  0.349194E-05  0.269E-02    2.92       1.0  T
   4    -24.9942843 -0.521429E-05  0.598E-03    2.92       4.5  T
   5    -24.9942844 -0.140309E-06  0.275E-03    2.92       9.7  T
   6    -24.9942844 -0.182130E-07  0.137E-03    2.92      19.6  T
   7    -24.9942844 -0.178139E-07  0.278E-04    2.92      96.2  T
   8    -24.9942844 -0.641052E-10  0.130E-04    2.92     205.0  T
     SCC iter.                  ...        0 min,  0.464 sec
     gradient                   ...        0 min,  0.095 sec
 * total energy  :   -24.7157488 Eh     change       -0.1411522E-03 Eh
   gradient norm :     0.0028342 Eh/α   predicted    -0.8478082E-04 ( -39.94%)
   displ. norm   :     0.2813210 α      lambda       -0.1886357E-03
   maximum displ.:     0.2112879 α      in ANC's #2, #1, #3, ...

........................................................................
.............................. CYCLE   24 ..............................
........................................................................

 iter      E             dE          RMSdq      gap      omega  full diag
   1    -24.9923487 -0.249923E+02  0.961E-02    2.94       0.0  T
   2    -24.9923518 -0.307400E-05  0.588E-02    2.93       1.0  T
   3    -24.9923436  0.824703E-05  0.388E-02    2.94       1.0  T
   4    -24.9923550 -0.114308E-04  0.702E-03    2.93       3.8  T
   5    -24.9923551 -0.122896E-06  0.390E-03    2.93       6.8  T
   6    -24.9923552 -0.854751E-07  0.142E-03    2.93      18.8  T
   7    -24.9923552 -0.170198E-07  0.392E-04    2.93      68.2  T
   8    -24.9923552 -0.104023E-09  0.136E-04    2.93     196.8  T
     SCC iter.                  ...        0 min,  0.395 sec
     gradient                   ...        0 min,  0.080 sec
 * total energy  :   -24.7158670 Eh     change       -0.1182785E-03 Eh
   gradient norm :     0.0083724 Eh/α   predicted    -0.1017858E-03 ( -13.94%)
   displ. norm   :     0.1026836 α      lambda       -0.9917530E-04
   maximum displ.:     0.0819818 α      in ANC's #2, #1, #5, ...

........................................................................
.............................. CYCLE   25 ..............................
........................................................................

 iter      E             dE          RMSdq      gap      omega  full diag
   1    -24.9926641 -0.249927E+02  0.366E-02    2.94       0.0  T
   2    -24.9926644 -0.245850E-06  0.217E-02    2.94       1.2  T
   3    -24.9926636  0.811599E-06  0.110E-02    2.94       2.4  T
   4    -24.9926645 -0.981323E-06  0.220E-03    2.94      12.1  T
   5    -24.9926646 -0.273557E-07  0.861E-04    2.94      31.0  T
   6    -24.9926646 -0.176590E-08  0.493E-04    2.94      54.3  T
     SCC iter.                  ...        0 min,  0.243 sec
     gradient                   ...        0 min,  0.001 sec
 * total energy  :   -24.7159517 Eh     change       -0.8468692E-04 Eh
   gradient norm :     0.0072978 Eh/α   predicted    -0.5010952E-04 ( -40.83%)
   displ. norm   :     0.1929855 α      lambda       -0.2523934E-03
   maximum displ.:     0.1514723 α      in ANC's #2, #1, #5, ...

........................................................................
.............................. CYCLE   26 ..............................
........................................................................

 iter      E             dE          RMSdq      gap      omega  full diag
   1    -24.9946475 -0.249946E+02  0.757E-02    2.95       0.0  T
   2    -24.9946507 -0.320157E-05  0.462E-02    2.96       1.0  T
   3    -24.9946501  0.648205E-06  0.171E-02    2.95       1.6  T
   4    -24.9946505 -0.454751E-06  0.746E-03    2.96       3.6  T
   5    -24.9946511 -0.550345E-06  0.259E-03    2.96      10.3  T
   6    -24.9946511 -0.264085E-07  0.593E-04    2.96      45.1  T
   7    -24.9946511 -0.567052E-09  0.256E-04    2.96     104.4  T
     SCC iter.                  ...        0 min,  0.378 sec
     gradient                   ...        0 min,  0.089 sec
 * total energy  :   -24.7161119 Eh     change       -0.1601648E-03 Eh
   gradient norm :     0.0025795 Eh/α   predicted    -0.1308953E-03 ( -18.27%)
   displ. norm   :     0.4893630 α      lambda       -0.2597392E-03
   maximum displ.:     0.3781304 α      in ANC's #2, #1, #5, ...

........................................................................
.............................. CYCLE   27 ..............................
........................................................................

 iter      E             dE          RMSdq      gap      omega  full diag
   1    -24.9878500 -0.249878E+02  0.175E-01    2.97       0.0  T
   2    -24.9878693 -0.193710E-04  0.102E-01    2.97       1.0  T
   3    -24.9878583  0.110315E-04  0.512E-02    2.97       1.0  T
   4    -24.9878719 -0.136429E-04  0.154E-02    2.97       1.7  T
   5    -24.9878739 -0.194315E-05  0.562E-03    2.97       4.8  T
   6    -24.9878740 -0.949104E-07  0.260E-03    2.97      10.3  T
   7    -24.9878740 -0.510129E-07  0.906E-04    2.97      29.5  T
   8    -24.9878740 -0.204070E-08  0.291E-04    2.97      92.0  T
     SCC iter.                  ...        0 min,  0.432 sec
     gradient                   ...        0 min,  0.078 sec
 * total energy  :   -24.7157741 Eh     change        0.3377871E-03 Eh
   gradient norm :     0.0202211 Eh/α   predicted    -0.1609554E-03 (-147.65%)
   displ. norm   :     0.2902575 α      lambda       -0.1177442E-02
   maximum displ.:     0.2294850 α      in ANC's #2, #1, #5, ...

........................................................................
.............................. CYCLE   28 ..............................
........................................................................

 iter      E             dE          RMSdq      gap      omega  full diag
   1    -24.9950084 -0.249950E+02  0.131E-01    2.96       0.0  T
   2    -24.9950237 -0.153033E-04  0.755E-02    2.97       1.0  T
   3    -24.9950145  0.920520E-05  0.468E-02    2.96       1.0  T
   4    -24.9950275 -0.130235E-04  0.118E-02    2.96       2.3  T
   5    -24.9950283 -0.777485E-06  0.512E-03    2.96       5.2  T
   6    -24.9950284 -0.122797E-06  0.221E-03    2.96      12.1  T
   7    -24.9950284 -0.286815E-07  0.738E-04    2.96      36.2  T
   8    -24.9950285 -0.953989E-09  0.251E-04    2.96     106.3  T
     SCC iter.                  ...        0 min,  0.231 sec
     gradient                   ...        0 min,  0.001 sec
 * total energy  :   -24.7162255 Eh     change       -0.4514305E-03 Eh
   gradient norm :     0.0033569 Eh/α   predicted    -0.6383190E-03 (  41.40%)
   displ. norm   :     0.0680927 α      lambda       -0.4477935E-04
   maximum displ.:     0.0471724 α      in ANC's #2, #1, #24, ...

........................................................................
.............................. CYCLE   29 ..............................
........................................................................

 iter      E             dE          RMSdq      gap      omega  full diag
   1    -24.9949687 -0.249950E+02  0.217E-02    2.96       0.0  T
   2    -24.9949688 -0.674964E-07  0.126E-02    2.96       2.1  T
   3    -24.9949688  0.408707E-07  0.293E-03    2.96       9.1  T
   4    -24.9949688 -0.495651E-07  0.151E-03    2.96      17.7  T
   5    -24.9949688 -0.166737E-07  0.453E-04    2.96      58.9  T
   6    -24.9949688 -0.117691E-09  0.171E-04    2.96     156.3  T
     SCC iter.                  ...        0 min,  0.244 sec
     gradient                   ...        0 min,  0.010 sec
 * total energy  :   -24.7162681 Eh     change       -0.4256896E-04 Eh
   gradient norm :     0.0032997 Eh/α   predicted    -0.2249439E-04 ( -47.16%)
   displ. norm   :     0.5143657 α      lambda       -0.3063693E-03
   maximum displ.:     0.3549772 α      in ANC's #2, #1, #24, ...

........................................................................
.............................. CYCLE   30 ..............................
........................................................................

 iter      E             dE          RMSdq      gap      omega  full diag
   1    -24.9901567 -0.249902E+02  0.172E-01    2.95       0.0  T
   2    -24.9901676 -0.108922E-04  0.984E-02    2.96       1.0  T
   3    -24.9901676 -0.204597E-08  0.206E-02    2.96       1.3  T
   4    -24.9901689 -0.123987E-05  0.110E-02    2.96       2.4  T
   5    -24.9901696 -0.687231E-06  0.389E-03    2.96       6.9  T
   6    -24.9901696 -0.847810E-08  0.184E-03    2.96      14.5  T
   7    -24.9901696 -0.221440E-07  0.852E-04    2.96      31.4  T
   8    -24.9901696 -0.267573E-08  0.313E-04    2.96      85.3  T
     SCC iter.                  ...        0 min,  0.497 sec
     gradient                   ...        0 min,  0.063 sec
 * total energy  :   -24.7161784 Eh     change        0.8973386E-04 Eh
   gradient norm :     0.0150896 Eh/α   predicted    -0.1937290E-03 (-315.89%)
   displ. norm   :     0.2917373 α      lambda       -0.6770046E-03
   maximum displ.:     0.2093376 α      in ANC's #2, #1, #18, ...

........................................................................
.............................. CYCLE   31 ..............................
........................................................................

 iter      E             dE          RMSdq      gap      omega  full diag
   1    -24.9953184 -0.249953E+02  0.110E-01    2.96       0.0  T
   2    -24.9953263 -0.797413E-05  0.622E-02    2.96       1.0  T
   3    -24.9953262  0.158949E-06  0.176E-02    2.96       1.5  T
   4    -24.9953266 -0.399117E-06  0.785E-03    2.96       3.4  T
   5    -24.9953271 -0.566641E-06  0.378E-03    2.96       7.1  T
   6    -24.9953272 -0.636264E-07  0.102E-03    2.96      26.2  T
   7    -24.9953272 -0.228570E-08  0.463E-04    2.96      57.7  T
   8    -24.9953272 -0.140194E-09  0.225E-04    2.96     119.0  T
     SCC iter.                  ...        0 min,  0.332 sec
     gradient                   ...        0 min,  0.018 sec
 * total energy  :   -24.7163902 Eh     change       -0.2118392E-03 Eh
   gradient norm :     0.0024933 Eh/α   predicted    -0.3673172E-03 (  73.39%)
   displ. norm   :     0.0747094 α      lambda       -0.3370231E-04
   maximum displ.:     0.0491706 α      in ANC's #1, #2, #18, ...

........................................................................
.............................. CYCLE   32 ..............................
........................................................................

 iter      E             dE          RMSdq      gap      omega  full diag
   1    -24.9951090 -0.249951E+02  0.248E-02    2.96       0.0  T
   2    -24.9951092 -0.153756E-06  0.144E-02    2.96       1.9  T
   3    -24.9951091  0.203818E-07  0.343E-03    2.96       7.8  T
   4    -24.9951092 -0.543126E-07  0.139E-03    2.96      19.3  T
   5    -24.9951092 -0.767862E-08  0.622E-04    2.96      43.0  T
   6    -24.9951092 -0.127968E-08  0.160E-04    2.96     166.6  T
     SCC iter.                  ...        0 min,  0.246 sec
     gradient                   ...        0 min,  0.002 sec
 * total energy  :   -24.7164203 Eh     change       -0.3013412E-04 Eh
   gradient norm :     0.0021853 Eh/α   predicted    -0.1694621E-04 ( -43.76%)
   displ. norm   :     0.2911452 α      lambda       -0.1063817E-03
   maximum displ.:     0.1947155 α      in ANC's #2, #1, #18, ...

........................................................................
.............................. CYCLE   33 ..............................
........................................................................

 iter      E             dE          RMSdq      gap      omega  full diag
   1    -24.9930927 -0.249931E+02  0.971E-02    2.95       0.0  T
   2    -24.9930958 -0.308193E-05  0.560E-02    2.95       1.0  T
   3    -24.9930955  0.232504E-06  0.134E-02    2.95       2.0  T
   4    -24.9930962 -0.681401E-06  0.602E-03    2.95       4.4  T
   5    -24.9930964 -0.172088E-06  0.243E-03    2.95      11.0  T
   6    -24.9930964 -0.981719E-08  0.981E-04    2.95      27.2  T
   7    -24.9930964 -0.504606E-08  0.515E-04    2.95      51.9  T
     SCC iter.                  ...        0 min,  0.349 sec
     gradient                   ...        0 min,  0.052 sec
 * total energy  :   -24.7164331 Eh     change       -0.1278729E-04 Eh
   gradient norm :     0.0071103 Eh/α   predicted    -0.5769396E-04 ( 351.18%)
   displ. norm   :     0.1290071 α      lambda       -0.9819550E-04
   maximum displ.:     0.0888600 α      in ANC's #2, #1, #18, ...

........................................................................
.............................. CYCLE   34 ..............................
........................................................................

 iter      E             dE          RMSdq      gap      omega  full diag
   1    -24.9950384 -0.249950E+02  0.479E-02    2.96       0.0  T
   2    -24.9950397 -0.123652E-05  0.272E-02    2.96       1.0  T
   3    -24.9950397 -0.445293E-07  0.638E-03    2.95       4.2  T
   4    -24.9950398 -0.674981E-07  0.270E-03    2.95       9.9  T
   5    -24.9950398 -0.364499E-07  0.123E-03    2.95      21.8  T
   6    -24.9950398 -0.542136E-08  0.336E-04    2.95      79.5  T
   7    -24.9950398  0.159613E-09  0.188E-04    2.95     142.2  T
     SCC iter.                  ...        0 min,  0.312 sec
     gradient                   ...        0 min,  0.068 sec
 * total energy  :   -24.7164707 Eh     change       -0.3756316E-04 Eh
   gradient norm :     0.0018219 Eh/α   predicted    -0.4991398E-04 (  32.88%)
   displ. norm   :     0.0750072 α      lambda       -0.1460657E-04
   maximum displ.:     0.0501653 α      in ANC's #2, #1, #18, ...

........................................................................
.............................. CYCLE   35 ..............................
........................................................................

 iter      E             dE          RMSdq      gap      omega  full diag
   1    -24.9951234 -0.249951E+02  0.233E-02    2.95       0.0  T
   2    -24.9951235 -0.830601E-07  0.137E-02    2.95       2.0  T
   3    -24.9951235  0.124863E-07  0.266E-03    2.95      10.1  T
   4    -24.9951235 -0.306845E-07  0.115E-03    2.95      23.3  T
   5    -24.9951235 -0.494402E-08  0.502E-04    2.95      53.3  T
   6    -24.9951235 -0.975941E-09  0.183E-04    2.95     146.0  T
     SCC iter.                  ...        0 min,  0.293 sec
     gradient                   ...        0 min,  0.026 sec
 * total energy  :   -24.7164894 Eh     change       -0.1866633E-04 Eh
   gradient norm :     0.0017071 Eh/α   predicted    -0.7321779E-05 ( -60.78%)
   displ. norm   :     0.1908468 α      lambda       -0.3306030E-04
   maximum displ.:     0.1307548 α      in ANC's #2, #1, #18, ...

........................................................................
.............................. CYCLE   36 ..............................
........................................................................

 iter      E             dE          RMSdq      gap      omega  full diag
   1    -24.9949233 -0.249949E+02  0.567E-02    2.96       0.0  T
   2    -24.9949236 -0.299599E-06  0.333E-02    2.96       1.0  T
   3    -24.9949236 -0.119088E-07  0.401E-03    2.96       6.7  T
   4    -24.9949237 -0.382287E-07  0.231E-03    2.96      11.6  T
   5    -24.9949237 -0.400267E-07  0.668E-04    2.96      40.0  T
   6    -24.9949237 -0.130297E-08  0.295E-04    2.96      90.6  T
     SCC iter.                  ...        0 min,  0.370 sec
     gradient                   ...        0 min,  0.059 sec
 * total energy  :   -24.7165186 Eh     change       -0.2923946E-04 Eh
   gradient norm :     0.0027145 Eh/α   predicted    -0.1679781E-04 ( -42.55%)
   displ. norm   :     0.0383497 α      lambda       -0.1846712E-04
   maximum displ.:     0.0268639 α      in ANC's #2, #1, #18, ...

........................................................................
.............................. CYCLE   37 ..............................
........................................................................

 iter      E             dE          RMSdq      gap      omega  full diag
   1    -24.9954936 -0.249955E+02  0.146E-02    2.96       0.0  T
   2    -24.9954937 -0.109171E-06  0.845E-03    2.96       3.2  T
   3    -24.9954937  0.416945E-08  0.232E-03    2.96      11.5  T
   4    -24.9954937 -0.874810E-08  0.859E-04    2.96      31.1  T
   5    -24.9954937 -0.678470E-08  0.423E-04    2.96      63.2  T
     SCC iter.                  ...        0 min,  0.269 sec
     gradient                   ...        0 min,  0.094 sec
 * total energy  :   -24.7165319 Eh     change       -0.1325535E-04 Eh
   gradient norm :     0.0015511 Eh/α   predicted    -0.9247404E-05 ( -30.24%)
   displ. norm   :     0.1316045 α      lambda       -0.1507547E-04
   maximum displ.:     0.0938262 α      in ANC's #2, #1, #18, ...

........................................................................
.............................. CYCLE   38 ..............................
........................................................................

 iter      E             dE          RMSdq      gap      omega  full diag
   1    -24.9956398 -0.249956E+02  0.395E-02    2.96       0.0  T
   2    -24.9956401 -0.310189E-06  0.235E-02    2.96       1.1  T
   3    -24.9956401  0.344347E-08  0.541E-03    2.96       4.9  T
   4    -24.9956402 -0.431106E-07  0.142E-03    2.96      18.8  T
   5    -24.9956402 -0.461500E-08  0.798E-04    2.96      33.5  T
   6    -24.9956402 -0.439075E-08  0.168E-04    2.96     159.4  T
     SCC iter.                  ...        0 min,  0.285 sec
     gradient                   ...        0 min,  0.092 sec
 * total energy  :   -24.7165444 Eh     change       -0.1258159E-04 Eh
   gradient norm :     0.0007936 Eh/α   predicted    -0.7597522E-05 ( -39.61%)
   displ. norm   :     0.0474776 α      lambda       -0.3483981E-05
   maximum displ.:     0.0387469 α      in ANC's #2, #1, #24, ...

........................................................................
.............................. CYCLE   39 ..............................
........................................................................

 iter      E             dE          RMSdq      gap      omega  full diag
   1    -24.9955494 -0.249955E+02  0.187E-02    2.96       0.0  T
   2    -24.9955495 -0.115960E-06  0.111E-02    2.96       2.4  T
   3    -24.9955495  0.455230E-07  0.391E-03    2.96       6.8  T
   4    -24.9955495 -0.483451E-07  0.154E-03    2.96      17.4  T
   5    -24.9955496 -0.243434E-07  0.546E-04    2.96      49.0  T
   6    -24.9955496 -0.374300E-09  0.281E-04    2.96      95.1  T
     SCC iter.                  ...        0 min,  0.422 sec
     gradient                   ...        0 min,  0.066 sec
 * total energy  :   -24.7165457 Eh     change       -0.1296137E-05 Eh
   gradient norm :     0.0013903 Eh/α   predicted    -0.1742237E-05 (  34.42%)
   displ. norm   :     0.0127631 α      lambda       -0.2498392E-05
   maximum displ.:     0.0096128 α      in ANC's #1, #2, #7, ...

........................................................................
.............................. CYCLE   40 ..............................
........................................................................

 iter      E             dE          RMSdq      gap      omega  full diag
   1    -24.9958507 -0.249959E+02  0.846E-03    2.96       0.0  T
   2    -24.9958507 -0.453472E-07  0.478E-03    2.96       5.6  T
   3    -24.9958507 -0.311037E-09  0.146E-03    2.96      18.3  T
   4    -24.9958507 -0.239334E-08  0.720E-04    2.96      37.1  T
   5    -24.9958507 -0.328514E-08  0.251E-04    2.96     106.4  T
     SCC iter.                  ...        0 min,  0.306 sec
     gradient                   ...        0 min,  0.075 sec
 * total energy  :   -24.7165470 Eh     change       -0.1222566E-05 Eh
   gradient norm :     0.0007417 Eh/α   predicted    -0.1248449E-05 (   2.12%)
   displ. norm   :     0.0177785 α      lambda       -0.1186615E-05
   maximum displ.:     0.0136432 α      in ANC's #2, #1, #18, ...

   *** GEOMETRY OPTIMIZATION CONVERGED AFTER 40 ITERATIONS ***

------------------------------------------------------------------------
 total energy gain   :        -0.0226899 Eh      -14.2382 kcal/mol
 total RMSD          :         0.8698597 a0        0.4603 Å
 total power (kW/mol):        -1.4893107 (step)   -3.0809 (real)
------------------------------------------------------------------------

 ANCopt (total)                0 d,  0 h,  0 min, 19.336 sec
 optimizer setup                ...        0 min,  0.001 sec (  0.007%)
 model hessian                  ...        0 min,  0.003 sec (  0.014%)
 ANC generation                 ...        0 min,  0.002 sec (  0.012%)
 coordinate transformation      ...        0 min,  0.001 sec (  0.003%)
 single point calculation       ...        0 min, 19.100 sec ( 98.779%)
 optimization log               ...        0 min,  0.097 sec (  0.501%)
 hessian update                 ...        0 min,  0.095 sec (  0.494%)
 rational function              ...        0 min,  0.019 sec (  0.099%)

================
 final structure:
================
14
 xtb: 6.7.1 (edcfbbe)
C           -1.96990898384112        0.68779270210582       -0.13273192610246
C           -0.54940567613518        0.24607822775135       -0.10118749499243
C            0.51570093185722        1.04813895235961       -0.01206746150477
C            1.86969942489348        0.56609649889248        0.00573078919942
N            2.21746725494759       -0.65886870551113       -0.12317368007732
N            1.30823602776827       -1.60186713564932       -0.31064298074781
S           -0.42644248667042       -1.57284494253464       -0.05980495453471
O           -0.72485669061864       -1.92947748972592        1.32172442032130
H           -2.50740538553757        0.24800624999538        0.70728607011866
H           -2.44930891957332        0.34059192115817       -1.04813196094354
H           -2.05104986456836        1.77057138500242       -0.07735485566781
H            0.37601839118911        2.12086938978433        0.03842210933632
H            2.68210834056165        1.26496973746233        0.12697738542725
H            1.70914863572729       -2.53005579109095       -0.33504645983207

 Bond Distances (Angstroems)
 ---------------------------
C1-C2=1.4879         C1-H9=1.0899         C1-H10=1.0901        C1-H11=1.0872        C2-C1=1.4879         C2-C3=1.3363         
C2-S7=1.8235         C3-C2=1.3363         C3-C4=1.4374         C3-H12=1.0830        C4-C3=1.4374         C4-N5=1.2799         
C4-H13=1.0785        N5-C4=1.2799         N5-N6=1.3233         N6-N5=1.3233         N6-S7=1.7530         N6-H14=1.0114        
S7-C2=1.8235         S7-N6=1.7530         S7-O8=1.4577         O8-S7=1.4577         H9-C1=1.0899         H10-C1=1.0901        
H11-C1=1.0872        H12-C3=1.0830        H13-C4=1.0785        H14-N6=1.0114        
 C  H  Rav=1.0857 sigma=0.0045  Rmin=1.0785  Rmax=1.0901     5
 C  C  Rav=1.4205 sigma=0.0630  Rmin=1.3363  Rmax=1.4879     3
 N  H  Rav=1.0114 sigma=0.0000  Rmin=1.0114  Rmax=1.0114     1
 N  C  Rav=1.2799 sigma=0.0000  Rmin=1.2799  Rmax=1.2799     1
 N  N  Rav=1.3233 sigma=0.0000  Rmin=1.3233  Rmax=1.3233     1
 S  C  Rav=1.8235 sigma=0.0000  Rmin=1.8235  Rmax=1.8235     1
 S  N  Rav=1.7530 sigma=0.0000  Rmin=1.7530  Rmax=1.7530     1
 S  O  Rav=1.4577 sigma=0.0000  Rmin=1.4577  Rmax=1.4577     1

 selected bond angles (degree)
 --------------------
H9-C1-C2=109.55                H10-C1-C2=110.07               H10-C1-H9=107.57               H11-C1-C2=111.46               
H11-C1-H9=109.01               H11-C1-H10=109.10              C3-C2-C1=125.74                S7-C2-C1=111.16                
S7-C2-C3=122.92                C4-C3-C2=123.39                H12-C3-C2=119.66               H12-C3-C4=116.94               
N5-C4-C3=125.15                H13-C4-C3=119.58               H13-C4-N5=115.27               N6-N5-C4=120.64                
S7-N6-N5=130.38                H14-N6-N5=112.65               H14-N6-S7=114.26               N6-S7-C2= 94.59                
O8-S7-C2=104.58                O8-S7-N6=109.52                

 selected dihedral angles (degree)
 ---------------------------------
C3-C2-C1-H9=239.49            C3-C2-C1-H10=121.41           C3-C2-C1-H11=  0.22           S7-C2-C1-H9= 54.72            
S7-C2-C1-H10=296.64           S7-C2-C1-H11=175.46           C4-C3-C2-C1=180.42            C4-C3-C2-S7=  5.71            
H12-C3-C2-C1=359.64           H12-C3-C2-S7=184.93           N5-C4-C3-C2=  3.47            N5-C4-C3-H12=184.22           
H13-C4-C3-C2=182.91           H13-C4-C3-H12=  3.66          N6-N5-C4-C3=  1.10            N6-N5-C4-H13=181.63           
S7-N6-N5-C4=343.77            H14-N6-N5-C4=183.83           N6-S7-C2-C1=170.84            N6-S7-C2-C3=346.24            
O8-S7-C2-C1=282.39            O8-S7-C2-C3= 97.78            C2-S7-N6-N5= 20.10            C2-S7-N6-H14=179.78           
O8-S7-N6-N5=272.85            O8-S7-N6-H14= 72.54           
           -------------------------------------------------
          |                Final Singlepoint                |
           -------------------------------------------------

          ...................................................
          :                      SETUP                      :
          :.................................................:
          :  # basis functions                  44          :
          :  # atomic orbitals                  43          :
          :  # shells                           23          :
          :  # electrons                        44          :
          :  max. iterations                   250          :
          :  Hamiltonian                  GFN2-xTB          :
          :  restarted?                      false          :
          :  GBSA solvation                  false          :
          :  PC potential                    false          :
          :  electronic temp.          300.0000000     K    :
          :  accuracy                    1.0000000          :
          :  -> integral cutoff          0.2500000E+02      :
          :  -> integral neglect         0.1000000E-07      :
          :  -> SCF convergence          0.1000000E-05 Eh   :
          :  -> wf. convergence          0.1000000E-03 e    :
          :  Broyden damping             0.4000000          :
          :  net charge                          0          :
          :  unpaired electrons                  0          :
          ...................................................

 iter      E             dE          RMSdq      gap      omega  full diag
   1    -24.9958507 -0.249959E+02  0.975E-05    2.96       0.0  T
   2    -24.9958507 -0.157918E-10  0.724E-05    2.96     369.4  T
   3    -24.9958507 -0.458691E-10  0.336E-05    2.96     794.4  T

   *** convergence criteria satisfied after 3 iterations ***

         #    Occupation            Energy/Eh            Energy/eV
      -------------------------------------------------------------
         1        2.0000           -0.7655595             -20.8319
       ...           ...                  ...                  ...
        16        2.0000           -0.4860618             -13.2264
        17        2.0000           -0.4713080             -12.8249
        18        2.0000           -0.4517888             -12.2938
        19        2.0000           -0.4413440             -12.0096
        20        2.0000           -0.3962702             -10.7831
        21        2.0000           -0.3873667             -10.5408
        22        2.0000           -0.3809191             -10.3653 (HOMO)
        23                         -0.2721024              -7.4043 (LUMO)
        24                         -0.2244968              -6.1089
        25                         -0.1817299              -4.9451
        26                         -0.1427734              -3.8851
        27                         -0.0637316              -1.7342
       ...                                ...                  ...
        43                          0.9381474              25.5283
      -------------------------------------------------------------
                  HL-Gap            0.1088167 Eh            2.9611 eV
             Fermi-level           -0.3265108 Eh           -8.8848 eV

 SCC (total)                   0 d,  0 h,  0 min,  0.181 sec
 SCC setup                      ...        0 min,  0.007 sec (  3.930%)
 Dispersion                     ...        0 min,  0.016 sec (  8.889%)
 classical contributions        ...        0 min,  0.008 sec (  4.418%)
 integral evaluation            ...        0 min,  0.005 sec (  2.859%)
 iterations                     ...        0 min,  0.143 sec ( 79.082%)
 molecular gradient             ...        0 min,  0.001 sec (  0.732%)
 printout                       ...        0 min,  0.000 sec (  0.077%)

         :::::::::::::::::::::::::::::::::::::::::::::::::::::
         ::                     SUMMARY                     ::
         :::::::::::::::::::::::::::::::::::::::::::::::::::::
         :: total energy             -24.716546954066 Eh    ::
         :: gradient norm              0.000746396693 Eh/a0 ::
         :: HOMO-LUMO gap              2.961053013075 eV    ::
         ::.................................................::
         :: SCC energy               -24.995821122091 Eh    ::
         :: -> isotropic ES            0.044366414853 Eh    ::
         :: -> anisotropic ES          0.000657813284 Eh    ::
         :: -> anisotropic XC          0.015480037105 Eh    ::
         :: -> dispersion             -0.012159960471 Eh    ::
         :: repulsion energy           0.279274168025 Eh    ::
         :: add. restraining           0.000000000000 Eh    ::
         :: total charge              -0.000000000000 e     ::
         :::::::::::::::::::::::::::::::::::::::::::::::::::::

           -------------------------------------------------
          |                Property Printout                |
           -------------------------------------------------

    * Orbital Energies and Occupations

         #    Occupation            Energy/Eh            Energy/eV
      -------------------------------------------------------------
         1        2.0000           -0.7655595             -20.8319
       ...           ...                  ...                  ...
        10        2.0000           -0.5420201             -14.7491
        11        2.0000           -0.5349570             -14.5569
        12        2.0000           -0.5148785             -14.0106
        13        2.0000           -0.5080686             -13.8253
        14        2.0000           -0.4900716             -13.3355
        15        2.0000           -0.4881524             -13.2833
        16        2.0000           -0.4860618             -13.2264
        17        2.0000           -0.4713080             -12.8249
        18        2.0000           -0.4517888             -12.2938
        19        2.0000           -0.4413440             -12.0096
        20        2.0000           -0.3962702             -10.7831
        21        2.0000           -0.3873667             -10.5408
        22        2.0000           -0.3809191             -10.3653 (HOMO)
        23                         -0.2721024              -7.4043 (LUMO)
        24                         -0.2244968              -6.1089
        25                         -0.1817299              -4.9451
        26                         -0.1427734              -3.8851
        27                         -0.0637316              -1.7342
        28                         -0.0314843              -0.8567
        29                          0.0734061               1.9975
        30                          0.0940054               2.5580
        31                          0.1013723               2.7585
        32                          0.1269715               3.4551
        33                          0.1555739               4.2334
       ...                                ...                  ...
        43                          0.9381474              25.5283
      -------------------------------------------------------------
                  HL-Gap            0.1088167 Eh            2.9611 eV
             Fermi-level           -0.3265108 Eh           -8.8848 eV

     #   Z          covCN         q      C6AA      α(0)
     1   6 C        3.798    -0.114    22.689     6.782
     2   6 C        2.936    -0.024    28.608     8.772
     3   6 C        2.921    -0.043    29.057     8.840
     4   6 C        2.864     0.029    27.352     8.573
     5   7 N        1.906    -0.137    24.745     7.375
     6   7 N        2.789    -0.157    24.391     7.335
     7  16 S        2.820     0.487   122.770    18.649
     8   8 O        0.860    -0.488    23.521     6.502
     9   1 H        0.925     0.069     2.094     2.263
    10   1 H        0.925     0.055     2.260     2.351
    11   1 H        0.925     0.054     2.267     2.354
    12   1 H        0.925     0.043     2.405     2.425
    13   1 H        0.926     0.047     2.357     2.401
    14   1 H        0.860     0.178     1.223     1.732

 Mol. C6AA /au·bohr⁶  :       3032.925843
 Mol. C8AA /au·bohr⁸  :      82181.866758
 Mol. α(0) /au        :         86.354539


Wiberg/Mayer (AO) data.
largest (>0.10) Wiberg bond orders for each atom

 ---------------------------------------------------------------------------
     #   Z sym  total        # sym  WBO       # sym  WBO       # sym  WBO
 ---------------------------------------------------------------------------
     1   6 C    3.995 --     2 C    1.037    11 H    0.979    10 H    0.965
                             9 H    0.962
     2   6 C    3.976 --     3 C    1.760     1 C    1.037     7 S    0.938
     3   6 C    3.992 --     2 C    1.760     4 C    1.147    12 H    0.955
     4   6 C    3.981 --     5 N    1.674     3 C    1.147    13 H    0.960
                             6 N    0.135
     5   7 N    3.108 --     4 C    1.674     6 N    1.196
     6   7 N    3.418 --     5 N    1.196     7 S    0.962    14 H    0.936
                             4 C    0.135
     7  16 S    3.916 --     8 O    1.837     6 N    0.962     2 C    0.938
     8   8 O    2.058 --     7 S    1.837
     9   1 H    0.995 --     1 C    0.962
    10   1 H    0.997 --     1 C    0.965
    11   1 H    0.997 --     1 C    0.979
    12   1 H    0.998 --     3 C    0.955
    13   1 H    0.998 --     4 C    0.960
    14   1 H    0.968 --     6 N    0.936
 ---------------------------------------------------------------------------

Topologies differ in total number of bonds
Writing topology from bond orders to xtbtopo.mol

molecular dipole:
                 x           y           z       tot (Debye)
 q only:       -0.121       0.447      -1.238
   full:       -0.198       0.681      -1.007       3.130
molecular quadrupole (traceless):
                xx          xy          yy          xz          yz          zz
 q only:        1.970      -2.810       2.175       2.633       7.287      -4.145
  q+dip:        0.435      -3.253       4.295       3.214       6.986      -4.730
   full:        0.079      -3.489       3.771       3.034       6.709      -3.851

           -------------------------------------------------
          |                Geometry Summary                 |
           -------------------------------------------------

      molecular mass/u    :      130.1681868
   center of mass at/Å    :        0.1555352      -0.6078580       0.0743243
  moments of inertia/u·Å² :        0.2005183E+03   0.2538107E+03   0.4046878E+03
rotational constants/cm⁻¹ :        0.8407030E-01   0.6641812E-01   0.4165590E-01

 * 12 selected distances

     #   Z          #   Z                                           value/Å
     1   6 C        2   6 C                                       1.4879304
     2   6 C        3   6 C                                       1.3362994
     4   6 C        5   7 N                                       1.2798824
     5   7 N        6   7 N                                       1.3232885
     6   7 N        7  16 S                                       1.7529610 (max)
     7  16 S        8   8 O                                       1.4576905
     1   6 C        9   1 H                                       1.0899289
     1   6 C       10   1 H                                       1.0901056
     1   6 C       11   1 H                                       1.0872260
     3   6 C       12   1 H                                       1.0829641
     4   6 C       13   1 H                                       1.0784864
     6   7 N       14   1 H                                       1.0113658 (min)

 * 7 distinct bonds (by element types)

   Z      Z             #   av. dist./Å        max./Å        min./Å
   1 H    6 C           5     1.0857422     1.0901056     1.0784864
   6 C    6 C           2     1.4121149     1.4879304     1.3362994
   1 H    7 N           1     1.0113658     1.0113658     1.0113658
   6 C    7 N           1     1.2798824     1.2798824     1.2798824
   7 N    7 N           1     1.3232885     1.3232885     1.3232885
   7 N   16 S           1     1.7529610     1.7529610     1.7529610
   8 O   16 S           1     1.4576905     1.4576905     1.4576905


optimized geometry written to: xtbopt.xyz


           -------------------------------------------------
          | TOTAL ENERGY              -24.716546954066 Eh   |
          | GRADIENT NORM               0.000746396693 Eh/α |
          | HOMO-LUMO GAP               2.961053013075 eV   |
           -------------------------------------------------

------------------------------------------------------------------------
 * finished run on 2026/01/15 at 10:07:54.081     
------------------------------------------------------------------------
 total:
 * wall-time:     0 d,  0 h,  0 min, 20.954 sec
 *  cpu-time:     0 d,  0 h,  2 min, 14.785 sec
 * ratio c/w:     6.432 speedup
 SCF:
 * wall-time:     0 d,  0 h,  0 min,  1.288 sec
 *  cpu-time:     0 d,  0 h,  0 min,  6.267 sec
 * ratio c/w:     4.866 speedup
 ANC optimizer:
 * wall-time:     0 d,  0 h,  0 min, 19.529 sec
 *  cpu-time:     0 d,  0 h,  2 min,  7.837 sec
 * ratio c/w:     6.546 speedup

