13
 energy: -20.646957771383 gnorm: 0.000563341418 xtb: 6.7.1 (edcfbbe)
C            2.08299441429021       -0.17196369306348       -0.24393401848938
C            0.62534604501941        0.05080974261884       -0.04066403013441
C           -0.20344861673745       -0.79323241599334        0.58203053091257
C           -1.64189562567072       -0.60275447038145        0.63713508264013
N           -2.27948168282323        0.36583564591088        0.11283433901287
N           -1.71351599549717        1.45357791051379       -0.36432121835754
S            0.06745458786755        1.59255724456377       -0.71193343030858
H            2.65506466540703        0.60041044222405        0.27123290403973
H            2.37862506990286       -1.14767880475613        0.13425345123728
H            2.32466697080540       -0.10587604810195       -1.30511816012093
H            0.18556688530375       -1.71510305596995        0.98673233383384
H           -2.25234776105699       -1.36988867121046        1.08770630283550
H           -2.22902895681051        1.84330617364557       -1.14595208710109
