      -----------------------------------------------------------      
     |                   =====================                   |     
     |                           x T B                           |     
     |                   =====================                   |     
     |                         S. Grimme                         |     
     |          Mulliken Center for Theoretical Chemistry        |     
     |                    University of Bonn                     |     
      -----------------------------------------------------------      

   * xtb version 6.7.1 (edcfbbe) compiled by 'conda@c0858423619e' on 2025-09-04

   xtb is free software: you can redistribute it and/or modify it under
   the terms of the GNU Lesser General Public License as published by
   the Free Software Foundation, either version 3 of the License, or
   (at your option) any later version.
   
   xtb is distributed in the hope that it will be useful,
   but WITHOUT ANY WARRANTY; without even the implied warranty of
   MERCHANTABILITY or FITNESS FOR A PARTICULAR PURPOSE.  See the
   GNU Lesser General Public License for more details.
   
   Cite this work as:
   * C. Bannwarth, E. Caldeweyher, S. Ehlert, A. Hansen, P. Pracht,
     J. Seibert, S. Spicher, S. Grimme, WIREs Comput. Mol. Sci., 2020, 11,
     e01493. DOI: 10.1002/wcms.1493
   
   for GFN2-xTB:
   * C. Bannwarth, S. Ehlert and S. Grimme., J. Chem. Theory Comput., 2019,
     15, 1652-1671. DOI: 10.1021/acs.jctc.8b01176
   for GFN1-xTB:
   * S. Grimme, C. Bannwarth, P. Shushkov, J. Chem. Theory Comput., 2017,
     13, 1989-2009. DOI: 10.1021/acs.jctc.7b00118
   for GFN0-xTB:
   * P. Pracht, E. Caldeweyher, S. Ehlert, S. Grimme, ChemRxiv, 2019, preprint.
     DOI: 10.26434/chemrxiv.8326202.v1
   for GFN-FF:
   * S. Spicher and S. Grimme, Angew. Chem. Int. Ed., 2020, 59, 15665-15673.
     DOI: 10.1002/anie.202004239
   
   for ALPB and GBSA implicit solvation:
   * S. Ehlert, M. Stahn, S. Spicher, S. Grimme, J. Chem. Theory Comput.,
     2021, 17, 4250-4261. DOI: 10.1021/acs.jctc.1c00471
   
   for ddCOSMO and CPCM-X implicit solvation:
   * M. Stahn, S. Ehlert, S. Grimme, J. Phys. Chem. A,
     2023, XX, XXXX-XXXX. DOI: 10.1021/acs.jpca.3c04382
   
   for DFT-D4:
   * E. Caldeweyher, C. Bannwarth and S. Grimme, J. Chem. Phys., 2017,
     147, 034112. DOI: 10.1063/1.4993215
   * E. Caldeweyher, S. Ehlert, A. Hansen, H. Neugebauer, S. Spicher,
     C. Bannwarth and S. Grimme, J. Chem. Phys., 2019, 150, 154122.
     DOI: 10.1063/1.5090222
   * E. Caldeweyher, J.-M. Mewes, S. Ehlert and S. Grimme, Phys. Chem. Chem. Phys.
     2020, 22, 8499-8512. DOI: 10.1039/D0CP00502A
   
   for sTDA-xTB:
   * S. Grimme and C. Bannwarth, J. Chem. Phys., 2016, 145, 054103.
     DOI: 10.1063/1.4959605
   
   in the mass-spec context:
   * V. Asgeirsson, C. Bauer and S. Grimme, Chem. Sci., 2017, 8, 4879.
     DOI: 10.1039/c7sc00601b
   * J. Koopman and S. Grimme, ACS Omega 2019, 4, 12, 15120-15133.
     DOI: 10.1021/acsomega.9b02011
   
   for metadynamics refer to:
   * S. Grimme, J. Chem. Theory Comput., 2019, 155, 2847-2862
     DOI: 10.1021/acs.jctc.9b00143
   
   for SPH calculations refer to:
   * S. Spicher and S. Grimme, J. Chem. Theory Comput., 2021, 17, 1701-1714
     DOI: 10.1021/acs.jctc.0c01306
   
   for ONIOM refer to:
   * C. Plett, A. Katbashev, S. Ehlert, S. Grimme, M. Bursch,
     Phys. Chem. Chem. Phys., 2023, 25, 17860-17868. DOI: 10.1039/D3CP02178E
   
   for DIPRO refer to:
   * J. Kohn, N. Gildemeister, S. Grimme, D. Fazzi, A. Hansen,
     J. Chem. Phys., 2023, just accepted.
   
   for PTB refer to:
   * S. Grimme, M. Mueller, A. Hansen, J. Chem. Phys., 2023, 158, 124111.
     DOI: 10.1063/5.0137838
   
   with help from (in alphabetical order)
   P. Atkinson, C. Bannwarth, F. Bohle, G. Brandenburg, E. Caldeweyher
   M. Checinski, S. Dohm, S. Ehlert, S. Ehrlich, I. Gerasimov, C. Hölzer
   A. Katbashev, J. Kohn, J. Koopman, C. Lavigne, S. Lehtola, F. März, M. Müller,
   F. Musil, H. Neugebauer, J. Pisarek, C. Plett, P. Pracht, F. Pultar,
   J. Seibert, P. Shushkov, S. Spicher, M. Stahn, M. Steiner, T. Strunk,
   J. Stückrath, T. Rose, and J. Unsleber
   
 * started run on 2026/01/15 at 10:06:54.014     
   ID    Z sym.   atoms
    1    6 C      1-4
    2    7 N      5, 6
    3   16 S      7
    4    1 H      8-13

           -------------------------------------------------
          |                Calculation Setup                |
           -------------------------------------------------

          program call               : /h/28/cicsy/miniforge3/envs/elagente/bin/xtb pre-oxidized_NH-thiadiazine.xyz --opt --gfn 2 -P 4 --chrg 0
          coordinate file            : pre-oxidized_NH-thiadiazine.xyz
          omp threads                :                     4


           -------------------------------------------------
          |                 G F N 2 - x T B                 |
           -------------------------------------------------

        Reference                      10.1021/acs.jctc.8b01176
      * Hamiltonian:
        H0-scaling (s, p, d)           1.850000    2.230000    2.230000
        zeta-weighting                 0.500000
      * Dispersion:
        s8                             2.700000
        a1                             0.520000
        a2                             5.000000
        s9                             5.000000
      * Repulsion:
        kExp                           1.500000    1.000000
        rExp                           1.000000
      * Coulomb:
        alpha                          2.000000
        third order                    shell-resolved
        anisotropic                    true
        a3                             3.000000
        a5                             4.000000
        cn-shift                       1.200000
        cn-exp                         4.000000
        max-rad                        5.000000


          ...................................................
          :                      SETUP                      :
          :.................................................:
          :  # basis functions                  40          :
          :  # atomic orbitals                  39          :
          :  # shells                           21          :
          :  # electrons                        38          :
          :  max. iterations                   250          :
          :  Hamiltonian                  GFN2-xTB          :
          :  restarted?                      false          :
          :  GBSA solvation                  false          :
          :  PC potential                    false          :
          :  electronic temp.          300.0000000     K    :
          :  accuracy                    1.0000000          :
          :  -> integral cutoff          0.2500000E+02      :
          :  -> integral neglect         0.1000000E-07      :
          :  -> SCF convergence          0.1000000E-05 Eh   :
          :  -> wf. convergence          0.1000000E-03 e    :
          :  Broyden damping             0.4000000          :
          :  net charge                          0          :
          :  unpaired electrons                  0          :
          ...................................................

 iter      E             dE          RMSdq      gap      omega  full diag
   1    -20.8160197 -0.208160E+02  0.445E+00    1.81       0.0  T
   2    -20.8370673 -0.210476E-01  0.327E+00    1.84       1.0  T
   3    -20.8429386 -0.587129E-02  0.152E+00    1.57       1.0  T
   4    -20.8560457 -0.131071E-01  0.553E-01    1.58       1.0  T
   5    -20.8575182 -0.147253E-02  0.211E-01    1.57       1.0  T
   6    -20.8574786  0.396337E-04  0.903E-02    1.56       1.0  T
   7    -20.8575613 -0.827901E-04  0.243E-02    1.57       1.1  T
   8    -20.8575635 -0.219512E-05  0.111E-02    1.57       2.5  T
   9    -20.8575637 -0.177073E-06  0.321E-03    1.57       8.7  T
  10    -20.8575637 -0.156094E-07  0.122E-03    1.57      22.8  T
  11    -20.8575637 -0.989932E-09  0.511E-04    1.57      54.3  T
  12    -20.8575637 -0.214055E-09  0.179E-04    1.57     155.2  T

   *** convergence criteria satisfied after 12 iterations ***

         #    Occupation            Energy/Eh            Energy/eV
      -------------------------------------------------------------
         1        2.0000           -0.7201036             -19.5950
       ...           ...                  ...                  ...
        13        2.0000           -0.4835452             -13.1579
        14        2.0000           -0.4704053             -12.8004
        15        2.0000           -0.4508127             -12.2672
        16        2.0000           -0.4273740             -11.6294
        17        2.0000           -0.4095154             -11.1435
        18        2.0000           -0.3893309             -10.5942
        19        2.0000           -0.3390105              -9.2249 (HOMO)
        20                         -0.2814256              -7.6580 (LUMO)
        21                         -0.2315278              -6.3002
        22                         -0.1798788              -4.8948
        23                         -0.1554472              -4.2299
        24                         -0.0332923              -0.9059
       ...                                ...                  ...
        39                          0.6061068              16.4930
      -------------------------------------------------------------
                  HL-Gap            0.0575848 Eh            1.5670 eV
             Fermi-level           -0.3102180 Eh           -8.4415 eV

 SCC (total)                   0 d,  0 h,  0 min,  1.539 sec
 SCC setup                      ...        0 min,  0.015 sec (  0.950%)
 Dispersion                     ...        0 min,  0.028 sec (  1.819%)
 classical contributions        ...        0 min,  0.028 sec (  1.814%)
 integral evaluation            ...        0 min,  0.053 sec (  3.414%)
 iterations                     ...        0 min,  1.340 sec ( 87.098%)
 molecular gradient             ...        0 min,  0.075 sec (  4.878%)
 printout                       ...        0 min,  0.000 sec (  0.026%)

         :::::::::::::::::::::::::::::::::::::::::::::::::::::
         ::                     SUMMARY                     ::
         :::::::::::::::::::::::::::::::::::::::::::::::::::::
         :: total energy             -20.629020347041 Eh    ::
         :: gradient norm              0.078022364078 Eh/a0 ::
         :: HOMO-LUMO gap              1.566962569576 eV    ::
         ::.................................................::
         :: SCC energy               -20.857544340917 Eh    ::
         :: -> isotropic ES            0.009341991342 Eh    ::
         :: -> anisotropic ES          0.001913523301 Eh    ::
         :: -> anisotropic XC          0.019786004104 Eh    ::
         :: -> dispersion             -0.010299020143 Eh    ::
         :: repulsion energy           0.228523993876 Eh    ::
         :: add. restraining           0.000000000000 Eh    ::
         :: total charge               0.000000000000 e     ::
         :::::::::::::::::::::::::::::::::::::::::::::::::::::

      ----------------------------------------------------------- 
     |                   =====================                   |
     |                        A N C O P T                        |
     |                   =====================                   |
     |               Approximate Normal Coordinate               |
     |                Rational Function Optimizer                |
      ----------------------------------------------------------- 
      ----------------------------------------------------------- 
     |                   =====================                   |
     |                        A N C O P T                        |
     |                   =====================                   |
     |               Approximate Normal Coordinate               |
     |                Rational Function Optimizer                |
      ----------------------------------------------------------- 

          ...................................................
          :                      SETUP                      :
          :.................................................:
          :   optimization level            normal          :
          :   max. optcycles                   200          :
          :   ANC micro-cycles                  20          :
          :   degrees of freedom                33          :
          :.................................................:
          :   RF solver                   davidson          :
          :   write xtbopt.log                true          :
          :   linear?                        false          :
          :   energy convergence         0.5000000E-05 Eh   :
          :   grad. convergence          0.1000000E-02 Eh/α :
          :   maxmium RF displ.          1.0000000          :
          :   Hlow (freq-cutoff)         0.1000000E-01      :
          :   Hmax (freq-cutoff)         5.0000000          :
          :   S6 in model hess.         20.0000000          :
          ...................................................

generating ANC from exact Hessian ...
Using Lindh-Hessian (1995)
 Shifting diagonal of input Hessian by    5.2310955251258168E-003
 Lowest  eigenvalues of input Hessian
    0.000000    0.000000    0.000000    0.000000    0.000000    0.000000
    0.010000    0.012579    0.017289    0.023555    0.031790    0.035034
    0.046624    0.065126    0.069609    0.087991    0.089350    0.101204
 Highest eigenvalues
    1.275068    1.314709    1.363772    1.533926    1.853757    1.975390


........................................................................
.............................. CYCLE    1 ..............................
........................................................................

 iter      E             dE          RMSdq      gap      omega  full diag
   1    -20.8575637 -0.208576E+02  0.431E-05    1.57       0.0  T
   2    -20.8575637 -0.497380E-12  0.262E-05    1.57    1057.1  T
   3    -20.8575637  0.461853E-12  0.106E-05    1.57    2606.6  T
     SCC iter.                  ...        0 min,  0.115 sec
     gradient                   ...        0 min,  0.066 sec
 * total energy  :   -20.6290203 Eh     change       -0.2488427E-09 Eh
   gradient norm :     0.0780207 Eh/α   predicted     0.0000000E+00 (-100.00%)
   displ. norm   :     0.2815697 α      lambda       -0.1604348E-01
   maximum displ.:     0.1554249 α      in ANC's #19, #16, #5, ...

........................................................................
.............................. CYCLE    2 ..............................
........................................................................

 iter      E             dE          RMSdq      gap      omega  full diag
   1    -20.8917186 -0.208917E+02  0.539E-01    1.64       0.0  T
   2    -20.8920342 -0.315629E-03  0.426E-01    1.67       1.0  T
   3    -20.8929347 -0.900422E-03  0.200E-01    1.64       1.0  T
   4    -20.8929741 -0.394399E-04  0.615E-02    1.65       1.0  T
   5    -20.8929940 -0.198787E-04  0.328E-02    1.65       1.0  T
   6    -20.8930021 -0.812656E-05  0.122E-02    1.65       2.3  T
   7    -20.8930025 -0.396938E-06  0.279E-03    1.65      10.0  T
   8    -20.8930025 -0.124079E-07  0.133E-03    1.65      20.8  T
   9    -20.8930025 -0.158972E-08  0.555E-04    1.65      50.0  T
  10    -20.8930025 -0.399833E-09  0.267E-04    1.65     104.1  T
     SCC iter.                  ...        0 min,  1.020 sec
     gradient                   ...        0 min,  0.065 sec
 * total energy  :   -20.6399389 Eh     change       -0.1091851E-01 Eh
   gradient norm :     0.0362963 Eh/α   predicted    -0.8657715E-02 ( -20.71%)
   displ. norm   :     0.2145783 α      lambda       -0.4243093E-02
   maximum displ.:     0.1002567 α      in ANC's #5, #16, #1, ...

........................................................................
.............................. CYCLE    3 ..............................
........................................................................

 iter      E             dE          RMSdq      gap      omega  full diag
   1    -20.9057277 -0.209057E+02  0.443E-01    1.70       0.0  T
   2    -20.9059539 -0.226230E-03  0.376E-01    1.72       1.0  T
   3    -20.9068975 -0.943626E-03  0.143E-01    1.70       1.0  T
   4    -20.9068967  0.771426E-06  0.559E-02    1.70       1.0  T
   5    -20.9069146 -0.179139E-04  0.275E-02    1.70       1.0  T
   6    -20.9069207 -0.602279E-05  0.887E-03    1.70       3.1  T
   7    -20.9069208 -0.111617E-06  0.172E-03    1.70      16.1  T
   8    -20.9069208 -0.193090E-08  0.763E-04    1.70      36.3  T
   9    -20.9069208 -0.851976E-09  0.209E-04    1.70     132.7  T
     SCC iter.                  ...        0 min,  0.479 sec
     gradient                   ...        0 min,  0.075 sec
 * total energy  :   -20.6423972 Eh     change       -0.2458334E-02 Eh
   gradient norm :     0.0164558 Eh/α   predicted    -0.2219236E-02 (  -9.73%)
   displ. norm   :     0.1754242 α      lambda       -0.1286861E-02
   maximum displ.:     0.0808344 α      in ANC's #5, #10, #8, ...

........................................................................
.............................. CYCLE    4 ..............................
........................................................................

 iter      E             dE          RMSdq      gap      omega  full diag
   1    -20.9072282 -0.209072E+02  0.267E-01    1.77       0.0  T
   2    -20.9072814 -0.532110E-04  0.144E-01    1.76       1.0  T
   3    -20.9072477  0.337191E-04  0.933E-02    1.75       1.0  T
   4    -20.9073078 -0.601420E-04  0.284E-02    1.75       1.0  T
   5    -20.9073103 -0.249027E-05  0.131E-02    1.75       2.1  T
   6    -20.9073110 -0.687401E-06  0.714E-03    1.75       3.9  T
   7    -20.9073114 -0.358297E-06  0.183E-03    1.75      15.1  T
   8    -20.9073114 -0.175111E-08  0.571E-04    1.75      48.5  T
   9    -20.9073114 -0.518096E-09  0.195E-04    1.75     142.1  T
     SCC iter.                  ...        0 min,  0.579 sec
     gradient                   ...        0 min,  0.071 sec
 * total energy  :   -20.6435793 Eh     change       -0.1182103E-02 Eh
   gradient norm :     0.0138029 Eh/α   predicted    -0.6632318E-03 ( -43.89%)
   displ. norm   :     0.7067075 α      lambda       -0.4953174E-02
   maximum displ.:     0.3305429 α      in ANC's #5, #10, #8, ...

........................................................................
.............................. CYCLE    5 ..............................
........................................................................

 iter      E             dE          RMSdq      gap      omega  full diag
   1    -20.8796897 -0.208797E+02  0.127E+00    2.05       0.0  T
   2    -20.8808176 -0.112795E-02  0.764E-01    1.87       1.0  T
   3    -20.8814645 -0.646843E-03  0.543E-01    1.95       1.0  T
   4    -20.8829348 -0.147033E-02  0.129E-01    1.92       1.0  T
   5    -20.8829668 -0.319947E-04  0.783E-02    1.91       1.0  T
   6    -20.8830148 -0.480389E-04  0.238E-02    1.91       1.2  T
   7    -20.8830165 -0.164228E-05  0.775E-03    1.92       3.6  T
   8    -20.8830165 -0.255058E-07  0.249E-03    1.91      11.1  T
   9    -20.8830165 -0.832337E-08  0.974E-04    1.91      28.5  T
  10    -20.8830165 -0.446747E-09  0.486E-04    1.91      57.1  T
     SCC iter.                  ...        0 min,  0.617 sec
     gradient                   ...        0 min,  0.062 sec
 * total energy  :   -20.6372960 Eh     change        0.6283306E-02 Eh
   gradient norm :     0.0733075 Eh/α   predicted    -0.3713484E-02 (-159.10%)
   displ. norm   :     0.3866834 α      lambda       -0.1976728E-01
   maximum displ.:     0.2097952 α      in ANC's #10, #8, #6, ...

........................................................................
.............................. CYCLE    6 ..............................
........................................................................

 iter      E             dE          RMSdq      gap      omega  full diag
   1    -20.9026888 -0.209027E+02  0.843E-01    1.80       0.0  T
   2    -20.9030008 -0.312083E-03  0.614E-01    1.88       1.0  T
   3    -20.9048717 -0.187082E-02  0.323E-01    1.84       1.0  T
   4    -20.9051050 -0.233346E-03  0.975E-02    1.84       1.0  T
   5    -20.9051621 -0.570573E-04  0.537E-02    1.85       1.0  T
   6    -20.9051802 -0.181470E-04  0.114E-02    1.85       2.4  T
   7    -20.9051804 -0.177442E-06  0.390E-03    1.85       7.1  T
   8    -20.9051804 -0.615383E-08  0.147E-03    1.85      18.9  T
   9    -20.9051804 -0.284955E-08  0.516E-04    1.85      53.7  T
  10    -20.9051804 -0.329010E-09  0.288E-04    1.85      96.2  T
     SCC iter.                  ...        0 min,  0.583 sec
     gradient                   ...        0 min,  0.001 sec
 * total energy  :   -20.6450884 Eh     change       -0.7792421E-02 Eh
   gradient norm :     0.0128369 Eh/α   predicted    -0.1136150E-01 (  45.80%)
   displ. norm   :     0.0750373 α      lambda       -0.3523893E-03
   maximum displ.:     0.0387374 α      in ANC's #5, #3, #8, ...

........................................................................
.............................. CYCLE    7 ..............................
........................................................................

 iter      E             dE          RMSdq      gap      omega  full diag
   1    -20.9060894 -0.209061E+02  0.104E-01    1.86       0.0  T
   2    -20.9060904 -0.936319E-06  0.948E-02    1.85       1.0  T
   3    -20.9061474 -0.570507E-04  0.378E-02    1.86       1.0  T
   4    -20.9061467  0.749866E-06  0.128E-02    1.86       2.2  T
   5    -20.9061482 -0.158261E-05  0.524E-03    1.85       5.3  T
   6    -20.9061484 -0.116725E-06  0.147E-03    1.85      18.8  T
   7    -20.9061484 -0.379211E-08  0.518E-04    1.85      53.6  T
   8    -20.9061484 -0.468212E-10  0.180E-04    1.85     154.2  T
     SCC iter.                  ...        0 min,  0.594 sec
     gradient                   ...        0 min,  0.001 sec
 * total energy  :   -20.6453246 Eh     change       -0.2362137E-03 Eh
   gradient norm :     0.0083221 Eh/α   predicted    -0.1771856E-03 ( -24.99%)
   displ. norm   :     0.1191530 α      lambda       -0.3288878E-03
   maximum displ.:     0.0609056 α      in ANC's #3, #4, #1, ...

........................................................................
.............................. CYCLE    8 ..............................
........................................................................

 iter      E             dE          RMSdq      gap      omega  full diag
   1    -20.9063829 -0.209064E+02  0.171E-01    1.90       0.0  T
   2    -20.9063913 -0.834527E-05  0.994E-02    1.89       1.0  T
   3    -20.9063975 -0.620786E-05  0.743E-02    1.89       1.0  T
   4    -20.9064305 -0.329812E-04  0.145E-02    1.89       1.9  T
   5    -20.9064305 -0.842307E-07  0.929E-03    1.89       3.0  T
   6    -20.9064312 -0.655791E-06  0.266E-03    1.89      10.4  T
   7    -20.9064312 -0.234754E-07  0.101E-03    1.89      27.4  T
   8    -20.9064312 -0.323954E-09  0.426E-04    1.89      65.1  T
   9    -20.9064312 -0.257106E-09  0.162E-04    1.89     171.5  T
     SCC iter.                  ...        0 min,  0.945 sec
     gradient                   ...        0 min,  0.049 sec
 * total energy  :   -20.6455258 Eh     change       -0.2011667E-03 Eh
   gradient norm :     0.0071784 Eh/α   predicted    -0.1667784E-03 ( -17.09%)
   displ. norm   :     0.0665969 α      lambda       -0.9813860E-04
   maximum displ.:     0.0430586 α      in ANC's #3, #1, #6, ...

........................................................................
.............................. CYCLE    9 ..............................
........................................................................

 iter      E             dE          RMSdq      gap      omega  full diag
   1    -20.9063069 -0.209063E+02  0.964E-02    1.90       0.0  T
   2    -20.9063088 -0.190951E-05  0.523E-02    1.90       1.0  T
   3    -20.9063091 -0.242493E-06  0.420E-02    1.90       1.0  T
   4    -20.9063205 -0.114922E-04  0.717E-03    1.90       3.9  T
   5    -20.9063206 -0.292011E-07  0.390E-03    1.90       7.1  T
   6    -20.9063207 -0.985894E-07  0.147E-03    1.90      18.9  T
   7    -20.9063207 -0.136038E-07  0.429E-04    1.90      64.6  T
   8    -20.9063207 -0.134115E-09  0.185E-04    1.90     150.2  T
     SCC iter.                  ...        0 min,  0.667 sec
     gradient                   ...        0 min,  0.174 sec
 * total energy  :   -20.6455927 Eh     change       -0.6687879E-04 Eh
   gradient norm :     0.0047200 Eh/α   predicted    -0.4928714E-04 ( -26.30%)
   displ. norm   :     0.0358131 α      lambda       -0.5334519E-04
   maximum displ.:     0.0188323 α      in ANC's #3, #5, #1, ...

........................................................................
.............................. CYCLE   10 ..............................
........................................................................

 iter      E             dE          RMSdq      gap      omega  full diag
   1    -20.9066873 -0.209067E+02  0.584E-02    1.89       0.0  T
   2    -20.9066880 -0.693634E-06  0.304E-02    1.90       1.0  T
   3    -20.9066875  0.431041E-06  0.251E-02    1.90       1.1  T
   4    -20.9066921 -0.451919E-05  0.373E-03    1.90       7.4  T
   5    -20.9066921 -0.249376E-07  0.164E-03    1.90      16.9  T
   6    -20.9066921 -0.376712E-08  0.548E-04    1.90      50.6  T
   7    -20.9066921 -0.111882E-08  0.242E-04    1.90     114.5  T
     SCC iter.                  ...        0 min,  0.635 sec
     gradient                   ...        0 min,  0.170 sec
 * total energy  :   -20.6456275 Eh     change       -0.3479796E-04 Eh
   gradient norm :     0.0035207 Eh/α   predicted    -0.2670648E-04 ( -23.25%)
   displ. norm   :     0.0314267 α      lambda       -0.2525877E-04
   maximum displ.:     0.0162784 α      in ANC's #1, #2, #5, ...

........................................................................
.............................. CYCLE   11 ..............................
........................................................................

 iter      E             dE          RMSdq      gap      omega  full diag
   1    -20.9067927 -0.209068E+02  0.494E-02    1.89       0.0  T
   2    -20.9067934 -0.711019E-06  0.271E-02    1.89       1.0  T
   3    -20.9067948 -0.138275E-05  0.193E-02    1.89       1.4  T
   4    -20.9067973 -0.245083E-05  0.346E-03    1.89       8.0  T
   5    -20.9067973 -0.357240E-07  0.191E-03    1.89      14.5  T
   6    -20.9067973 -0.163423E-07  0.899E-04    1.89      30.8  T
   7    -20.9067973 -0.395134E-08  0.253E-04    1.89     109.7  T
     SCC iter.                  ...        0 min,  0.515 sec
     gradient                   ...        0 min,  0.095 sec
 * total energy  :   -20.6456475 Eh     change       -0.2001626E-04 Eh
   gradient norm :     0.0038941 Eh/α   predicted    -0.1264348E-04 ( -36.83%)
   displ. norm   :     0.0751872 α      lambda       -0.4961256E-04
   maximum displ.:     0.0458136 α      in ANC's #2, #1, #5, ...

........................................................................
.............................. CYCLE   12 ..............................
........................................................................

 iter      E             dE          RMSdq      gap      omega  full diag
   1    -20.9068769 -0.209069E+02  0.104E-01    1.88       0.0  T
   2    -20.9068805 -0.359302E-05  0.564E-02    1.88       1.0  T
   3    -20.9068845 -0.407826E-05  0.404E-02    1.89       1.0  T
   4    -20.9068957 -0.111743E-04  0.753E-03    1.88       3.7  T
   5    -20.9068959 -0.165763E-06  0.430E-03    1.88       6.4  T
   6    -20.9068960 -0.804066E-07  0.190E-03    1.88      14.6  T
   7    -20.9068960 -0.171400E-07  0.593E-04    1.88      46.8  T
   8    -20.9068960 -0.191839E-09  0.236E-04    1.88     117.6  T
     SCC iter.                  ...        0 min,  0.526 sec
     gradient                   ...        0 min,  0.104 sec
 * total energy  :   -20.6456850 Eh     change       -0.3753402E-04 Eh
   gradient norm :     0.0048395 Eh/α   predicted    -0.2494506E-04 ( -33.54%)
   displ. norm   :     0.1321071 α      lambda       -0.6569522E-04
   maximum displ.:     0.0841689 α      in ANC's #2, #1, #3, ...

........................................................................
.............................. CYCLE   13 ..............................
........................................................................

 iter      E             dE          RMSdq      gap      omega  full diag
   1    -20.9065472 -0.209065E+02  0.161E-01    1.87       0.0  T
   2    -20.9065563 -0.914156E-05  0.835E-02    1.87       1.0  T
   3    -20.9065546  0.169505E-05  0.629E-02    1.88       1.0  T
   4    -20.9065833 -0.287445E-04  0.116E-02    1.87       2.4  T
   5    -20.9065837 -0.315751E-06  0.701E-03    1.87       4.0  T
   6    -20.9065839 -0.228963E-06  0.274E-03    1.87      10.1  T
   7    -20.9065839 -0.365070E-07  0.902E-04    1.87      30.8  T
   8    -20.9065839 -0.421462E-09  0.343E-04    1.87      80.8  T
     SCC iter.                  ...        0 min,  0.686 sec
     gradient                   ...        0 min,  0.133 sec
 * total energy  :   -20.6457356 Eh     change       -0.5060490E-04 Eh
   gradient norm :     0.0055332 Eh/α   predicted    -0.3342008E-04 ( -33.96%)
   displ. norm   :     0.2145777 α      lambda       -0.9302633E-04
   maximum displ.:     0.1463009 α      in ANC's #2, #3, #4, ...

........................................................................
.............................. CYCLE   14 ..............................
........................................................................

 iter      E             dE          RMSdq      gap      omega  full diag
   1    -20.9057505 -0.209058E+02  0.228E-01    1.87       0.0  T
   2    -20.9057681 -0.176018E-04  0.112E-01    1.86       1.0  T
   3    -20.9057398  0.282100E-04  0.870E-02    1.87       1.0  T
   4    -20.9057995 -0.596013E-04  0.162E-02    1.87       1.7  T
   5    -20.9057997 -0.276539E-06  0.981E-03    1.87       2.8  T
   6    -20.9058002 -0.456614E-06  0.354E-03    1.87       7.8  T
   7    -20.9058003 -0.784197E-07  0.123E-03    1.87      22.6  T
   8    -20.9058003 -0.843706E-09  0.470E-04    1.87      59.0  T
   9    -20.9058003 -0.138627E-09  0.226E-04    1.87     122.9  T
     SCC iter.                  ...        0 min,  0.660 sec
     gradient                   ...        0 min,  0.079 sec
 * total energy  :   -20.6458024 Eh     change       -0.6677903E-04 Eh
   gradient norm :     0.0057018 Eh/α   predicted    -0.4865491E-04 ( -27.14%)
   displ. norm   :     0.2079968 α      lambda       -0.9349563E-04
   maximum displ.:     0.1424233 α      in ANC's #2, #3, #4, ...

........................................................................
.............................. CYCLE   15 ..............................
........................................................................

 iter      E             dE          RMSdq      gap      omega  full diag
   1    -20.9052326 -0.209052E+02  0.194E-01    1.86       0.0  T
   2    -20.9052433 -0.106931E-04  0.908E-02    1.86       1.0  T
   3    -20.9052243  0.190078E-04  0.571E-02    1.86       1.0  T
   4    -20.9052511 -0.268010E-04  0.137E-02    1.86       2.0  T
   5    -20.9052511 -0.479223E-07  0.698E-03    1.86       4.0  T
   6    -20.9052514 -0.271603E-06  0.238E-03    1.86      11.6  T
   7    -20.9052514 -0.416883E-07  0.950E-04    1.86      29.2  T
   8    -20.9052514 -0.798835E-09  0.374E-04    1.86      74.1  T
     SCC iter.                  ...        0 min,  0.612 sec
     gradient                   ...        0 min,  0.127 sec
 * total energy  :   -20.6458710 Eh     change       -0.6854906E-04 Eh
   gradient norm :     0.0065371 Eh/α   predicted    -0.4876993E-04 ( -28.85%)
   displ. norm   :     0.2005876 α      lambda       -0.1421065E-03
   maximum displ.:     0.1271550 α      in ANC's #2, #3, #4, ...

........................................................................
.............................. CYCLE   16 ..............................
........................................................................

 iter      E             dE          RMSdq      gap      omega  full diag
   1    -20.9059259 -0.209059E+02  0.166E-01    1.86       0.0  T
   2    -20.9059325 -0.662594E-05  0.820E-02    1.86       1.0  T
   3    -20.9059285  0.395924E-05  0.295E-02    1.86       1.0  T
   4    -20.9059345 -0.596373E-05  0.126E-02    1.86       2.2  T
   5    -20.9059346 -0.154063E-06  0.464E-03    1.86       6.0  T
   6    -20.9059348 -0.171764E-06  0.174E-03    1.86      16.0  T
   7    -20.9059348 -0.211579E-07  0.697E-04    1.86      39.8  T
   8    -20.9059348 -0.664468E-09  0.322E-04    1.86      86.2  T
     SCC iter.                  ...        0 min,  0.502 sec
     gradient                   ...        0 min,  0.010 sec
 * total energy  :   -20.6459725 Eh     change       -0.1015419E-03 Eh
   gradient norm :     0.0073353 Eh/α   predicted    -0.7391189E-04 ( -27.21%)
   displ. norm   :     0.2515323 α      lambda       -0.1413881E-03
   maximum displ.:     0.1564929 α      in ANC's #3, #2, #4, ...

........................................................................
.............................. CYCLE   17 ..............................
........................................................................

 iter      E             dE          RMSdq      gap      omega  full diag
   1    -20.9053515 -0.209054E+02  0.234E-01    1.86       0.0  T
   2    -20.9053660 -0.145224E-04  0.115E-01    1.86       1.0  T
   3    -20.9053453  0.207220E-04  0.570E-02    1.86       1.0  T
   4    -20.9053727 -0.274127E-04  0.178E-02    1.86       1.6  T
   5    -20.9053732 -0.475127E-06  0.700E-03    1.86       4.0  T
   6    -20.9053735 -0.296110E-06  0.241E-03    1.86      11.5  T
   7    -20.9053735 -0.565580E-07  0.702E-04    1.86      39.5  T
   8    -20.9053735 -0.994834E-09  0.229E-04    1.86     121.1  T
     SCC iter.                  ...        0 min,  0.714 sec
     gradient                   ...        0 min,  0.010 sec
 * total energy  :   -20.6460571 Eh     change       -0.8462727E-04 Eh
   gradient norm :     0.0090584 Eh/α   predicted    -0.7516359E-04 ( -11.18%)
   displ. norm   :     0.1747086 α      lambda       -0.2752403E-03
   maximum displ.:     0.1059068 α      in ANC's #3, #1, #2, ...

........................................................................
.............................. CYCLE   18 ..............................
........................................................................

 iter      E             dE          RMSdq      gap      omega  full diag
   1    -20.9099770 -0.209100E+02  0.174E-01    1.84       0.0  T
   2    -20.9100091 -0.320940E-04  0.126E-01    1.86       1.0  T
   3    -20.9100686 -0.594488E-04  0.675E-02    1.85       1.0  T
   4    -20.9100773 -0.878816E-05  0.172E-02    1.85       1.6  T
   5    -20.9100791 -0.174806E-05  0.100E-02    1.85       2.8  T
   6    -20.9100797 -0.598954E-06  0.366E-03    1.85       7.6  T
   7    -20.9100797 -0.314175E-07  0.796E-04    1.85      34.9  T
   8    -20.9100797 -0.275300E-09  0.224E-04    1.85     123.6  T
     SCC iter.                  ...        0 min,  0.299 sec
     gradient                   ...        0 min,  0.001 sec
 * total energy  :   -20.6460717 Eh     change       -0.1455180E-04 Eh
   gradient norm :     0.0107249 Eh/α   predicted    -0.1418189E-03 ( 874.58%)
   displ. norm   :     0.2330045 α      lambda       -0.2699969E-03
   maximum displ.:     0.1756546 α      in ANC's #2, #3, #4, ...

........................................................................
.............................. CYCLE   19 ..............................
........................................................................

 iter      E             dE          RMSdq      gap      omega  full diag
   1    -20.9054080 -0.209054E+02  0.216E-01    1.83       0.0  T
   2    -20.9054251 -0.171304E-04  0.102E-01    1.83       1.0  T
   3    -20.9054213  0.380121E-05  0.338E-02    1.83       1.0  T
   4    -20.9054284 -0.707373E-05  0.155E-02    1.83       1.8  T
   5    -20.9054291 -0.766508E-06  0.577E-03    1.83       4.8  T
   6    -20.9054292 -0.224212E-07  0.243E-03    1.83      11.4  T
   7    -20.9054292 -0.569212E-07  0.798E-04    1.83      34.8  T
   8    -20.9054292 -0.237007E-08  0.221E-04    1.83     125.4  T
     SCC iter.                  ...        0 min,  0.835 sec
     gradient                   ...        0 min,  0.140 sec
 * total energy  :   -20.6461654 Eh     change       -0.9368820E-04 Eh
   gradient norm :     0.0125456 Eh/α   predicted    -0.1423287E-03 (  51.92%)
   displ. norm   :     0.1651205 α      lambda       -0.2915644E-03
   maximum displ.:     0.1016556 α      in ANC's #2, #3, #1, ...

........................................................................
.............................. CYCLE   20 ..............................
........................................................................

 iter      E             dE          RMSdq      gap      omega  full diag
   1    -20.9062560 -0.209063E+02  0.156E-01    1.84       0.0  T
   2    -20.9062836 -0.276652E-04  0.116E-01    1.82       1.0  T
   3    -20.9063374 -0.538139E-04  0.605E-02    1.83       1.0  T
   4    -20.9063428 -0.539734E-05  0.177E-02    1.83       1.6  T
   5    -20.9063449 -0.210581E-05  0.906E-03    1.83       3.1  T
   6    -20.9063455 -0.535829E-06  0.380E-03    1.83       7.3  T
   7    -20.9063455 -0.299643E-07  0.538E-04    1.83      51.6  T
   8    -20.9063455 -0.122448E-09  0.227E-04    1.83     122.2  T
     SCC iter.                  ...        0 min,  0.475 sec
     gradient                   ...        0 min,  0.040 sec
 * total energy  :   -20.6462139 Eh     change       -0.4856734E-04 Eh
   gradient norm :     0.0060864 Eh/α   predicted    -0.1497588E-03 ( 208.35%)
   displ. norm   :     0.1009922 α      lambda       -0.1403623E-03
   maximum displ.:     0.0610541 α      in ANC's #2, #1, #3, ...
 * RMSD in coord.:     0.5697627 α      energy gain  -0.1719358E-01 Eh

generating ANC from exact Hessian ...
Using Lindh-Hessian (1995)
 Shifting diagonal of input Hessian by    4.3554376837649511E-003
 Lowest  eigenvalues of input Hessian
    0.000000    0.000000    0.000000    0.000000    0.000000    0.000000
    0.010000    0.013350    0.019915    0.023517    0.035477    0.043336
    0.047540    0.072000    0.081944    0.099965    0.104968    0.119696
 Highest eigenvalues
    1.287332    1.352452    1.413570    1.712745    1.961711    2.214183


........................................................................
.............................. CYCLE   21 ..............................
........................................................................

 iter      E             dE          RMSdq      gap      omega  full diag
   1    -20.9074203 -0.209074E+02  0.823E-02    1.82       0.0  T
   2    -20.9074279 -0.760783E-05  0.567E-02    1.83       1.0  T
   3    -20.9074355 -0.758674E-05  0.333E-02    1.82       1.0  T
   4    -20.9074390 -0.352155E-05  0.673E-03    1.82       4.1  T
   5    -20.9074391 -0.907871E-07  0.486E-03    1.82       5.7  T
   6    -20.9074392 -0.151042E-06  0.182E-03    1.82      15.3  T
   7    -20.9074393 -0.116187E-07  0.353E-04    1.82      78.5  T
   8    -20.9074393 -0.330473E-10  0.121E-04    1.82     229.2  T
     SCC iter.                  ...        0 min,  0.555 sec
     gradient                   ...        0 min,  0.114 sec
 * total energy  :   -20.6463071 Eh     change       -0.9316552E-04 Eh
   gradient norm :     0.0031002 Eh/α   predicted     0.0000000E+00 (-100.00%)
   displ. norm   :     0.0462158 α      lambda       -0.4136584E-04
   maximum displ.:     0.0349885 α      in ANC's #2, #1, #5, ...

........................................................................
.............................. CYCLE   22 ..............................
........................................................................

 iter      E             dE          RMSdq      gap      omega  full diag
   1    -20.9079475 -0.209079E+02  0.259E-02    1.82       0.0  T
   2    -20.9079477 -0.136155E-06  0.139E-02    1.82       2.0  T
   3    -20.9079471  0.572122E-06  0.832E-03    1.82       3.3  T
   4    -20.9079478 -0.704734E-06  0.245E-03    1.82      11.3  T
   5    -20.9079478 -0.147589E-07  0.863E-04    1.82      32.1  T
   6    -20.9079478 -0.251559E-08  0.395E-04    1.82      70.2  T
     SCC iter.                  ...        0 min,  0.500 sec
     gradient                   ...        0 min,  0.119 sec
 * total energy  :   -20.6463414 Eh     change       -0.3427786E-04 Eh
   gradient norm :     0.0014658 Eh/α   predicted    -0.2072775E-04 ( -39.53%)
   displ. norm   :     0.1796073 α      lambda       -0.7276602E-04
   maximum displ.:     0.1465481 α      in ANC's #2, #1, #4, ...

........................................................................
.............................. CYCLE   23 ..............................
........................................................................

 iter      E             dE          RMSdq      gap      omega  full diag
   1    -20.9085854 -0.209086E+02  0.730E-02    1.82       0.0  T
   2    -20.9085859 -0.558741E-06  0.418E-02    1.82       1.0  T
   3    -20.9085802  0.572282E-05  0.255E-02    1.82       1.1  T
   4    -20.9085869 -0.672430E-05  0.559E-03    1.82       5.0  T
   5    -20.9085870 -0.520932E-07  0.208E-03    1.82      13.3  T
   6    -20.9085870 -0.275115E-07  0.814E-04    1.82      34.1  T
   7    -20.9085870 -0.579358E-08  0.172E-04    1.82     161.4  T
     SCC iter.                  ...        0 min,  0.672 sec
     gradient                   ...        0 min,  0.099 sec
 * total energy  :   -20.6464245 Eh     change       -0.8317242E-04 Eh
   gradient norm :     0.0031212 Eh/α   predicted    -0.3690276E-04 ( -55.63%)
   displ. norm   :     0.1199669 α      lambda       -0.6089943E-04
   maximum displ.:     0.0934196 α      in ANC's #2, #1, #3, ...

........................................................................
.............................. CYCLE   24 ..............................
........................................................................

 iter      E             dE          RMSdq      gap      omega  full diag
   1    -20.9083517 -0.209084E+02  0.418E-02    1.82       0.0  T
   2    -20.9083518 -0.138087E-06  0.242E-02    1.82       1.1  T
   3    -20.9083517  0.622860E-07  0.419E-03    1.82       6.6  T
   4    -20.9083518 -0.787517E-07  0.221E-03    1.82      12.6  T
   5    -20.9083519 -0.309460E-07  0.385E-04    1.82      72.1  T
   6    -20.9083519 -0.207464E-09  0.173E-04    1.82     160.4  T
     SCC iter.                  ...        0 min,  0.586 sec
     gradient                   ...        0 min,  0.103 sec
 * total energy  :   -20.6464817 Eh     change       -0.5713372E-04 Eh
   gradient norm :     0.0038788 Eh/α   predicted    -0.3088805E-04 ( -45.94%)
   displ. norm   :     0.2461607 α      lambda       -0.1306459E-03
   maximum displ.:     0.1861306 α      in ANC's #2, #1, #3, ...

........................................................................
.............................. CYCLE   25 ..............................
........................................................................

 iter      E             dE          RMSdq      gap      omega  full diag
   1    -20.9070366 -0.209070E+02  0.883E-02    1.83       0.0  T
   2    -20.9070378 -0.113218E-05  0.515E-02    1.83       1.0  T
   3    -20.9070351  0.269609E-05  0.190E-02    1.83       1.5  T
   4    -20.9070381 -0.299815E-05  0.542E-03    1.83       5.1  T
   5    -20.9070382 -0.157612E-06  0.179E-03    1.83      15.5  T
   6    -20.9070382 -0.537188E-09  0.994E-04    1.83      27.9  T
   7    -20.9070382 -0.917928E-08  0.326E-04    1.83      85.1  T
     SCC iter.                  ...        0 min,  0.486 sec
     gradient                   ...        0 min,  0.097 sec
 * total energy  :   -20.6465698 Eh     change       -0.8816033E-04 Eh
   gradient norm :     0.0066870 Eh/α   predicted    -0.6928283E-04 ( -21.41%)
   displ. norm   :     0.1106467 α      lambda       -0.7583393E-04
   maximum displ.:     0.0894340 α      in ANC's #2, #1, #3, ...

........................................................................
.............................. CYCLE   26 ..............................
........................................................................

 iter      E             dE          RMSdq      gap      omega  full diag
   1    -20.9070136 -0.209070E+02  0.443E-02    1.84       0.0  T
   2    -20.9070138 -0.176304E-06  0.271E-02    1.84       1.0  T
   3    -20.9070112  0.263141E-05  0.189E-02    1.84       1.5  T
   4    -20.9070144 -0.318902E-05  0.201E-03    1.84      13.8  T
   5    -20.9070144 -0.218758E-07  0.797E-04    1.84      34.8  T
   6    -20.9070144  0.430006E-09  0.353E-04    1.84      78.5  T
     SCC iter.                  ...        0 min,  0.468 sec
     gradient                   ...        0 min,  0.110 sec
 * total energy  :   -20.6466297 Eh     change       -0.5988705E-04 Eh
   gradient norm :     0.0063324 Eh/α   predicted    -0.3837907E-04 ( -35.91%)
   displ. norm   :     0.1199446 α      lambda       -0.1575595E-03
   maximum displ.:     0.0968998 α      in ANC's #2, #1, #3, ...

........................................................................
.............................. CYCLE   27 ..............................
........................................................................

 iter      E             dE          RMSdq      gap      omega  full diag
   1    -20.9086191 -0.209086E+02  0.646E-02    1.85       0.0  T
   2    -20.9086206 -0.155948E-05  0.417E-02    1.85       1.0  T
   3    -20.9086188  0.181525E-05  0.292E-02    1.84       1.0  T
   4    -20.9086245 -0.563525E-05  0.537E-03    1.85       5.2  T
   5    -20.9086246 -0.113160E-06  0.173E-03    1.84      16.0  T
   6    -20.9086246 -0.306932E-08  0.444E-04    1.84      62.5  T
   7    -20.9086246 -0.437442E-09  0.245E-04    1.84     113.3  T
     SCC iter.                  ...        0 min,  0.585 sec
     gradient                   ...        0 min,  0.152 sec
 * total energy  :   -20.6467143 Eh     change       -0.8455903E-04 Eh
   gradient norm :     0.0030264 Eh/α   predicted    -0.7991228E-04 (  -5.50%)
   displ. norm   :     0.3196451 α      lambda       -0.1383025E-03
   maximum displ.:     0.2482626 α      in ANC's #2, #1, #3, ...

........................................................................
.............................. CYCLE   28 ..............................
........................................................................

 iter      E             dE          RMSdq      gap      omega  full diag
   1    -20.9052697 -0.209053E+02  0.125E-01    1.86       0.0  T
   2    -20.9052752 -0.553224E-05  0.733E-02    1.86       1.0  T
   3    -20.9052591  0.161080E-04  0.505E-02    1.85       1.0  T
   4    -20.9052797 -0.206157E-04  0.977E-03    1.86       2.8  T
   5    -20.9052803 -0.509135E-06  0.296E-03    1.85       9.4  T
   6    -20.9052802  0.532850E-08  0.113E-03    1.85      24.6  T
   7    -20.9052803 -0.118441E-07  0.412E-04    1.85      67.4  T
   8    -20.9052803 -0.593861E-09  0.193E-04    1.85     144.1  T
     SCC iter.                  ...        0 min,  0.769 sec
     gradient                   ...        0 min,  0.196 sec
 * total energy  :   -20.6467126 Eh     change        0.1645641E-05 Eh
   gradient norm :     0.0101381 Eh/α   predicted    -0.7621771E-04 (*******%)
   displ. norm   :     0.1514761 α      lambda       -0.1962607E-03
   maximum displ.:     0.1191766 α      in ANC's #2, #1, #3, ...

........................................................................
.............................. CYCLE   29 ..............................
........................................................................

 iter      E             dE          RMSdq      gap      omega  full diag
   1    -20.9082961 -0.209083E+02  0.675E-02    1.85       0.0  T
   2    -20.9082987 -0.251779E-05  0.389E-02    1.85       1.0  T
   3    -20.9082959  0.275169E-05  0.208E-02    1.85       1.3  T
   4    -20.9082990 -0.306250E-05  0.681E-03    1.85       4.1  T
   5    -20.9082993 -0.364228E-06  0.160E-03    1.85      17.3  T
   6    -20.9082993  0.108397E-09  0.491E-04    1.85      56.5  T
   7    -20.9082993 -0.850800E-09  0.244E-04    1.85     113.7  T
     SCC iter.                  ...        0 min,  1.358 sec
     gradient                   ...        0 min,  0.176 sec
 * total energy  :   -20.6467900 Eh     change       -0.7732211E-04 Eh
   gradient norm :     0.0026870 Eh/α   predicted    -0.1003832E-03 (  29.82%)
   displ. norm   :     0.0742444 α      lambda       -0.3235641E-04
   maximum displ.:     0.0587699 α      in ANC's #2, #1, #3, ...

........................................................................
.............................. CYCLE   30 ..............................
........................................................................

 iter      E             dE          RMSdq      gap      omega  full diag
   1    -20.9083750 -0.209084E+02  0.305E-02    1.85       0.0  T
   2    -20.9083752 -0.122779E-06  0.174E-02    1.85       1.6  T
   3    -20.9083741  0.104175E-05  0.122E-02    1.85       2.3  T
   4    -20.9083754 -0.132171E-05  0.218E-03    1.85      12.7  T
   5    -20.9083754 -0.649153E-08  0.851E-04    1.85      32.6  T
   6    -20.9083754 -0.189757E-08  0.295E-04    1.85      93.9  T
     SCC iter.                  ...        0 min,  0.566 sec
     gradient                   ...        0 min,  0.052 sec
 * total energy  :   -20.6468194 Eh     change       -0.2941995E-04 Eh
   gradient norm :     0.0024713 Eh/α   predicted    -0.1626854E-04 ( -44.70%)
   displ. norm   :     0.3435412 α      lambda       -0.1252675E-03
   maximum displ.:     0.2749354 α      in ANC's #2, #1, #3, ...

........................................................................
.............................. CYCLE   31 ..............................
........................................................................

 iter      E             dE          RMSdq      gap      omega  full diag
   1    -20.9065783 -0.209066E+02  0.142E-01    1.85       0.0  T
   2    -20.9065823 -0.407281E-05  0.790E-02    1.85       1.0  T
   3    -20.9065663  0.160362E-04  0.471E-02    1.85       1.0  T
   4    -20.9065854 -0.191112E-04  0.107E-02    1.85       2.6  T
   5    -20.9065857 -0.286780E-06  0.404E-03    1.85       6.9  T
   6    -20.9065857 -0.247203E-07  0.183E-03    1.85      15.2  T
   7    -20.9065858 -0.381848E-07  0.386E-04    1.85      71.8  T
   8    -20.9065858 -0.343547E-09  0.194E-04    1.85     142.8  T
     SCC iter.                  ...        0 min,  0.448 sec
     gradient                   ...        0 min,  0.001 sec
 * total energy  :   -20.6468400 Eh     change       -0.2061117E-04 Eh
   gradient norm :     0.0077764 Eh/α   predicted    -0.7002786E-04 ( 239.76%)
   displ. norm   :     0.1401192 α      lambda       -0.1327524E-03
   maximum displ.:     0.1103990 α      in ANC's #2, #1, #3, ...

........................................................................
.............................. CYCLE   32 ..............................
........................................................................

 iter      E             dE          RMSdq      gap      omega  full diag
   1    -20.9089543 -0.209090E+02  0.616E-02    1.84       0.0  T
   2    -20.9089565 -0.217293E-05  0.350E-02    1.85       1.0  T
   3    -20.9089537  0.280668E-05  0.212E-02    1.85       1.3  T
   4    -20.9089570 -0.334376E-05  0.620E-03    1.85       4.5  T
   5    -20.9089573 -0.246964E-06  0.165E-03    1.85      16.8  T
   6    -20.9089573  0.130598E-09  0.447E-04    1.85      62.1  T
   7    -20.9089573 -0.886210E-09  0.242E-04    1.85     114.6  T
     SCC iter.                  ...        0 min,  0.471 sec
     gradient                   ...        0 min,  0.092 sec
 * total energy  :   -20.6468859 Eh     change       -0.4592161E-04 Eh
   gradient norm :     0.0018579 Eh/α   predicted    -0.6768082E-04 (  47.38%)
   displ. norm   :     0.1117820 α      lambda       -0.1997346E-04
   maximum displ.:     0.0905252 α      in ANC's #2, #1, #3, ...

........................................................................
.............................. CYCLE   33 ..............................
........................................................................

 iter      E             dE          RMSdq      gap      omega  full diag
   1    -20.9087692 -0.209088E+02  0.470E-02    1.85       0.0  T
   2    -20.9087694 -0.229528E-06  0.256E-02    1.85       1.1  T
   3    -20.9087691  0.301232E-06  0.767E-03    1.85       3.6  T
   4    -20.9087695 -0.370075E-06  0.327E-03    1.85       8.5  T
   5    -20.9087695 -0.200048E-07  0.104E-03    1.85      26.8  T
   6    -20.9087695 -0.110444E-07  0.288E-04    1.85      96.3  T
   7    -20.9087695 -0.658659E-09  0.106E-04    1.85     262.2  T
     SCC iter.                  ...        0 min,  0.324 sec
     gradient                   ...        0 min,  0.001 sec
 * total energy  :   -20.6469111 Eh     change       -0.2515556E-04 Eh
   gradient norm :     0.0018941 Eh/α   predicted    -0.1004212E-04 ( -60.08%)
   displ. norm   :     0.2544921 α      lambda       -0.3703688E-04
   maximum displ.:     0.2036391 α      in ANC's #2, #1, #3, ...

........................................................................
.............................. CYCLE   34 ..............................
........................................................................

 iter      E             dE          RMSdq      gap      omega  full diag
   1    -20.9076675 -0.209077E+02  0.108E-01    1.84       0.0  T
   2    -20.9076689 -0.137410E-05  0.589E-02    1.84       1.0  T
   3    -20.9076688  0.482394E-07  0.112E-02    1.84       2.5  T
   4    -20.9076687  0.135279E-06  0.772E-03    1.85       3.6  T
   5    -20.9076692 -0.508359E-06  0.166E-03    1.85      16.7  T
   6    -20.9076692 -0.146478E-07  0.790E-04    1.84      35.1  T
   7    -20.9076692 -0.477974E-08  0.307E-04    1.84      90.4  T
     SCC iter.                  ...        0 min,  0.333 sec
     gradient                   ...        0 min,  0.101 sec
 * total energy  :   -20.6469240 Eh     change       -0.1297321E-04 Eh
   gradient norm :     0.0045269 Eh/α   predicted    -0.1905184E-04 (  46.86%)
   displ. norm   :     0.0483184 α      lambda       -0.3525004E-04
   maximum displ.:     0.0391542 α      in ANC's #2, #1, #3, ...

........................................................................
.............................. CYCLE   35 ..............................
........................................................................

 iter      E             dE          RMSdq      gap      omega  full diag
   1    -20.9087234 -0.209087E+02  0.241E-02    1.84       0.0  T
   2    -20.9087238 -0.406834E-06  0.135E-02    1.84       2.1  T
   3    -20.9087234  0.349769E-06  0.787E-03    1.85       3.5  T
   4    -20.9087238 -0.414640E-06  0.266E-03    1.84      10.4  T
   5    -20.9087239 -0.461941E-07  0.708E-04    1.84      39.2  T
   6    -20.9087239  0.517666E-09  0.313E-04    1.84      88.6  T
     SCC iter.                  ...        0 min,  0.456 sec
     gradient                   ...        0 min,  0.040 sec
 * total energy  :   -20.6469444 Eh     change       -0.2039474E-04 Eh
   gradient norm :     0.0014670 Eh/α   predicted    -0.1766378E-04 ( -13.39%)
   displ. norm   :     0.0433354 α      lambda       -0.7066211E-05
   maximum displ.:     0.0307677 α      in ANC's #2, #3, #1, ...

........................................................................
.............................. CYCLE   36 ..............................
........................................................................

 iter      E             dE          RMSdq      gap      omega  full diag
   1    -20.9091805 -0.209092E+02  0.224E-02    1.85       0.0  T
   2    -20.9091806 -0.141051E-06  0.121E-02    1.84       2.3  T
   3    -20.9091803  0.364615E-06  0.779E-03    1.85       3.6  T
   4    -20.9091807 -0.476330E-06  0.189E-03    1.85      14.7  T
   5    -20.9091808 -0.416494E-08  0.894E-04    1.85      31.0  T
   6    -20.9091808 -0.470108E-08  0.377E-04    1.85      73.5  T
     SCC iter.                  ...        0 min,  0.539 sec
     gradient                   ...        0 min,  0.099 sec
 * total energy  :   -20.6469513 Eh     change       -0.6824819E-05 Eh
   gradient norm :     0.0005580 Eh/α   predicted    -0.3538047E-05 ( -48.16%)
   displ. norm   :     0.0875370 α      lambda       -0.5265109E-05
   maximum displ.:     0.0641864 α      in ANC's #2, #1, #3, ...

........................................................................
.............................. CYCLE   37 ..............................
........................................................................

 iter      E             dE          RMSdq      gap      omega  full diag
   1    -20.9089990 -0.209090E+02  0.379E-02    1.85       0.0  T
   2    -20.9089991 -0.181667E-06  0.207E-02    1.85       1.3  T
   3    -20.9089986  0.532759E-06  0.871E-03    1.85       3.2  T
   4    -20.9089993 -0.655366E-06  0.259E-03    1.85      10.7  T
   5    -20.9089993  0.254709E-08  0.104E-03    1.85      26.8  T
   6    -20.9089993 -0.116103E-07  0.276E-04    1.85     100.6  T
   7    -20.9089993 -0.490715E-09  0.992E-05    1.85     279.6  T
     SCC iter.                  ...        0 min,  0.641 sec
     gradient                   ...        0 min,  0.001 sec
 * total energy  :   -20.6469567 Eh     change       -0.5390782E-05 Eh
   gradient norm :     0.0005219 Eh/α   predicted    -0.2643016E-05 ( -50.97%)
   displ. norm   :     0.0531125 α      lambda       -0.1650983E-05
   maximum displ.:     0.0383538 α      in ANC's #2, #1, #3, ...

........................................................................
.............................. CYCLE   38 ..............................
........................................................................

 iter      E             dE          RMSdq      gap      omega  full diag
   1    -20.9089475 -0.209089E+02  0.232E-02    1.85       0.0  T
   2    -20.9089475 -0.805905E-07  0.128E-02    1.85       2.2  T
   3    -20.9089473  0.213781E-06  0.525E-03    1.85       5.3  T
   4    -20.9089476 -0.264892E-06  0.153E-03    1.85      18.1  T
   5    -20.9089476 -0.291022E-08  0.278E-04    1.85      99.9  T
   6    -20.9089476 -0.904699E-10  0.120E-04    1.85     230.3  T
     SCC iter.                  ...        0 min,  0.526 sec
     gradient                   ...        0 min,  0.052 sec
 * total energy  :   -20.6469578 Eh     change       -0.1120041E-05 Eh
   gradient norm :     0.0005599 Eh/α   predicted    -0.8270451E-06 ( -26.16%)
   displ. norm   :     0.0107011 α      lambda       -0.7334109E-06
   maximum displ.:     0.0065774 α      in ANC's #1, #2, #3, ...

   *** GEOMETRY OPTIMIZATION CONVERGED AFTER 38 ITERATIONS ***

------------------------------------------------------------------------
 total energy gain   :        -0.0179374 Eh      -11.2559 kcal/mol
 total RMSD          :         0.8999135 a0        0.4762 Å
 total power (kW/mol):        -1.2393342 (step)   -1.7318 (real)
------------------------------------------------------------------------

 ANCopt (total)                0 d,  0 h,  0 min, 27.195 sec
 optimizer setup                ...        0 min,  0.000 sec (  0.002%)
 model hessian                  ...        0 min,  0.002 sec (  0.007%)
 ANC generation                 ...        0 min,  0.001 sec (  0.003%)
 coordinate transformation      ...        0 min,  0.001 sec (  0.002%)
 single point calculation       ...        0 min, 26.951 sec ( 99.103%)
 optimization log               ...        0 min,  0.020 sec (  0.073%)
 hessian update                 ...        0 min,  0.203 sec (  0.746%)
 rational function              ...        0 min,  0.008 sec (  0.028%)

================
 final structure:
================
13
 xtb: 6.7.1 (edcfbbe)
C            2.08299441429021       -0.17196369306348       -0.24393401848938
C            0.62534604501941        0.05080974261884       -0.04066403013441
C           -0.20344861673745       -0.79323241599334        0.58203053091257
C           -1.64189562567072       -0.60275447038145        0.63713508264013
N           -2.27948168282323        0.36583564591088        0.11283433901287
N           -1.71351599549717        1.45357791051379       -0.36432121835754
S            0.06745458786755        1.59255724456377       -0.71193343030858
H            2.65506466540703        0.60041044222405        0.27123290403973
H            2.37862506990286       -1.14767880475613        0.13425345123728
H            2.32466697080540       -0.10587604810195       -1.30511816012093
H            0.18556688530375       -1.71510305596995        0.98673233383384
H           -2.25234776105699       -1.36988867121046        1.08770630283550
H           -2.22902895681051        1.84330617364557       -1.14595208710109

 Bond Distances (Angstroems)
 ---------------------------
C1-C2=1.4885         C1-H8=1.0905         C1-H9=1.0874         C1-H10=1.0904        C2-C1=1.4885         C2-C3=1.3368         
C2-S7=1.7717         C3-C2=1.3368         C3-C4=1.4520         C3-H11=1.0793        C4-C3=1.4520         C4-N5=1.2726         
C4-H12=1.0790        N5-C4=1.2726         N5-N6=1.3157         N6-N5=1.3157         N6-S7=1.8199         N6-H13=1.0142        
S7-C2=1.7717         S7-N6=1.8199         H8-C1=1.0905         H9-C1=1.0874         H10-C1=1.0904        H11-C3=1.0793        
H12-C4=1.0790        H13-N6=1.0142        
 C  H  Rav=1.0853 sigma=0.0052  Rmin=1.0790  Rmax=1.0905     5
 C  C  Rav=1.4258 sigma=0.0647  Rmin=1.3368  Rmax=1.4885     3
 N  H  Rav=1.0142 sigma=0.0000  Rmin=1.0142  Rmax=1.0142     1
 N  C  Rav=1.2726 sigma=0.0000  Rmin=1.2726  Rmax=1.2726     1
 N  N  Rav=1.3157 sigma=0.0000  Rmin=1.3157  Rmax=1.3157     1
 S  C  Rav=1.7717 sigma=0.0000  Rmin=1.7717  Rmax=1.7717     1
 S  N  Rav=1.8199 sigma=0.0000  Rmin=1.8199  Rmax=1.8199     1

 selected bond angles (degree)
 --------------------
H8-C1-C2=110.07                H9-C1-C2=110.67                H9-C1-H8=109.18                H10-C1-C2=109.93               
H10-C1-H8=107.49               H10-C1-H9=109.43               C3-C2-C1=125.19                S7-C2-C1=112.76                
S7-C2-C3=122.05                C4-C3-C2=123.30                H11-C3-C2=119.37               H11-C3-C4=117.06               
N5-C4-C3=125.49                H12-C4-C3=118.89               H12-C4-N5=115.45               N6-N5-C4=124.27                
S7-N6-N5=123.60                H13-N6-N5=112.24               H13-N6-S7=108.72               N6-S7-C2= 99.75                

 selected dihedral angles (degree)
 ---------------------------------
C3-C2-C1-H8=242.49            C3-C2-C1-H9=  3.27            C3-C2-C1-H10=124.27           S7-C2-C1-H8= 62.13            
S7-C2-C1-H9=182.91            S7-C2-C1-H10=303.90           C4-C3-C2-C1=186.62            C4-C3-C2-S7=  7.01            
H11-C3-C2-C1=  0.45           H11-C3-C2-S7=180.84           N5-C4-C3-C2=  0.04            N5-C4-C3-H11=186.09           
H12-C4-C3-C2=174.96           H12-C4-C3-H11=  1.00          N6-N5-C4-C3=348.06            N6-N5-C4-H12=172.99           
S7-N6-N5-C4= 14.94            H13-N6-N5-C4=148.40           N6-S7-C2-C1=176.87            N6-S7-C2-C3=356.52            
C2-S7-N6-N5=353.16            C2-S7-N6-H13=218.34           
           -------------------------------------------------
          |                Final Singlepoint                |
           -------------------------------------------------

          ...................................................
          :                      SETUP                      :
          :.................................................:
          :  # basis functions                  40          :
          :  # atomic orbitals                  39          :
          :  # shells                           21          :
          :  # electrons                        38          :
          :  max. iterations                   250          :
          :  Hamiltonian                  GFN2-xTB          :
          :  restarted?                      false          :
          :  GBSA solvation                  false          :
          :  PC potential                    false          :
          :  electronic temp.          300.0000000     K    :
          :  accuracy                    1.0000000          :
          :  -> integral cutoff          0.2500000E+02      :
          :  -> integral neglect         0.1000000E-07      :
          :  -> SCF convergence          0.1000000E-05 Eh   :
          :  -> wf. convergence          0.1000000E-03 e    :
          :  Broyden damping             0.4000000          :
          :  net charge                          0          :
          :  unpaired electrons                  0          :
          ...................................................

 iter      E             dE          RMSdq      gap      omega  full diag
   1    -20.9089476 -0.209089E+02  0.738E-05    1.85       0.0  T
   2    -20.9089476  0.427391E-11  0.620E-05    1.85     447.5  T
   3    -20.9089476 -0.312141E-10  0.274E-05    1.85    1011.9  T

   *** convergence criteria satisfied after 3 iterations ***

         #    Occupation            Energy/Eh            Energy/eV
      -------------------------------------------------------------
         1        2.0000           -0.7223124             -19.6551
       ...           ...                  ...                  ...
        13        2.0000           -0.4842958             -13.1784
        14        2.0000           -0.4755837             -12.9413
        15        2.0000           -0.4473983             -12.1743
        16        2.0000           -0.4377204             -11.9110
        17        2.0000           -0.4215095             -11.4699
        18        2.0000           -0.3893791             -10.5955
        19        2.0000           -0.3375866              -9.1862 (HOMO)
        20                         -0.2697436              -7.3401 (LUMO)
        21                         -0.2406057              -6.5472
        22                         -0.1610398              -4.3821
        23                         -0.1549626              -4.2167
        24                         -0.0137737              -0.3748
       ...                                ...                  ...
        39                          0.6555027              17.8371
      -------------------------------------------------------------
                  HL-Gap            0.0678430 Eh            1.8461 eV
             Fermi-level           -0.3036651 Eh           -8.2631 eV

 SCC (total)                   0 d,  0 h,  0 min,  0.326 sec
 SCC setup                      ...        0 min,  0.014 sec (  4.395%)
 Dispersion                     ...        0 min,  0.000 sec (  0.025%)
 classical contributions        ...        0 min,  0.001 sec (  0.317%)
 integral evaluation            ...        0 min,  0.001 sec (  0.238%)
 iterations                     ...        0 min,  0.262 sec ( 80.493%)
 molecular gradient             ...        0 min,  0.047 sec ( 14.428%)
 printout                       ...        0 min,  0.000 sec (  0.098%)

         :::::::::::::::::::::::::::::::::::::::::::::::::::::
         ::                     SUMMARY                     ::
         :::::::::::::::::::::::::::::::::::::::::::::::::::::
         :: total energy             -20.646957771383 Eh    ::
         :: gradient norm              0.000563341418 Eh/a0 ::
         :: HOMO-LUMO gap              1.846101443276 eV    ::
         ::.................................................::
         :: SCC energy               -20.908930836651 Eh    ::
         :: -> isotropic ES            0.008490962251 Eh    ::
         :: -> anisotropic ES          0.001514458537 Eh    ::
         :: -> anisotropic XC          0.019032788498 Eh    ::
         :: -> dispersion             -0.010243025262 Eh    ::
         :: repulsion energy           0.261973065268 Eh    ::
         :: add. restraining           0.000000000000 Eh    ::
         :: total charge              -0.000000000000 e     ::
         :::::::::::::::::::::::::::::::::::::::::::::::::::::

           -------------------------------------------------
          |                Property Printout                |
           -------------------------------------------------

    * Orbital Energies and Occupations

         #    Occupation            Energy/Eh            Energy/eV
      -------------------------------------------------------------
         1        2.0000           -0.7223124             -19.6551
       ...           ...                  ...                  ...
         7        2.0000           -0.5550613             -15.1040
         8        2.0000           -0.5449634             -14.8292
         9        2.0000           -0.5325223             -14.4907
        10        2.0000           -0.5245610             -14.2740
        11        2.0000           -0.5069593             -13.7951
        12        2.0000           -0.5000978             -13.6084
        13        2.0000           -0.4842958             -13.1784
        14        2.0000           -0.4755837             -12.9413
        15        2.0000           -0.4473983             -12.1743
        16        2.0000           -0.4377204             -11.9110
        17        2.0000           -0.4215095             -11.4699
        18        2.0000           -0.3893791             -10.5955
        19        2.0000           -0.3375866              -9.1862 (HOMO)
        20                         -0.2697436              -7.3401 (LUMO)
        21                         -0.2406057              -6.5472
        22                         -0.1610398              -4.3821
        23                         -0.1549626              -4.2167
        24                         -0.0137737              -0.3748
        25                          0.0138661               0.3773
        26                          0.0310788               0.8457
        27                          0.0781566               2.1267
        28                          0.1026273               2.7926
        29                          0.1379967               3.7551
        30                          0.1480374               4.0283
       ...                                ...                  ...
        39                          0.6555027              17.8371
      -------------------------------------------------------------
                  HL-Gap            0.0678430 Eh            1.8461 eV
             Fermi-level           -0.3036651 Eh           -8.2631 eV

     #   Z          covCN         q      C6AA      α(0)
     1   6 C        3.807    -0.110    22.605     6.768
     2   6 C        2.938     0.061    26.637     8.464
     3   6 C        2.941    -0.068    29.690     8.937
     4   6 C        2.852     0.040    27.105     8.533
     5   7 N        1.909    -0.128    24.557     7.347
     6   7 N        2.772    -0.096    23.124     7.142
     7  16 S        1.991    -0.124   146.245    20.354
     8   1 H        0.924     0.062     2.172     2.305
     9   1 H        0.925     0.051     2.302     2.372
    10   1 H        0.924     0.063     2.167     2.302
    11   1 H        0.926     0.037     2.496     2.470
    12   1 H        0.926     0.042     2.422     2.434
    13   1 H        0.860     0.171     1.265     1.762

 Mol. C6AA /au·bohr⁶  :       2606.898030
 Mol. C8AA /au·bohr⁸  :      73412.563168
 Mol. α(0) /au        :         81.190495


Wiberg/Mayer (AO) data.
largest (>0.10) Wiberg bond orders for each atom

 ---------------------------------------------------------------------------
     #   Z sym  total        # sym  WBO       # sym  WBO       # sym  WBO
 ---------------------------------------------------------------------------
     1   6 C    3.995 --     2 C    1.035     9 H    0.979    10 H    0.965
                             8 H    0.964
     2   6 C    3.968 --     3 C    1.743     7 S    1.050     1 C    1.035
     3   6 C    3.985 --     2 C    1.743     4 C    1.098    11 H    0.957
                             7 S    0.101
     4   6 C    3.980 --     5 N    1.709     3 C    1.098    12 H    0.960
                             6 N    0.147
     5   7 N    3.195 --     4 C    1.709     6 N    1.220     7 S    0.129
     6   7 N    3.326 --     5 N    1.220     7 S    0.954    13 H    0.937
                             4 C    0.147
     7  16 S    2.326 --     2 C    1.050     6 N    0.954     5 N    0.129
                             3 C    0.101
     8   1 H    0.996 --     1 C    0.964
     9   1 H    0.997 --     1 C    0.979
    10   1 H    0.996 --     1 C    0.965
    11   1 H    0.999 --     3 C    0.957
    12   1 H    0.998 --     4 C    0.960
    13   1 H    0.971 --     6 N    0.937
 ---------------------------------------------------------------------------

Topologies differ in total number of bonds
Writing topology from bond orders to xtbtopo.mol

molecular dipole:
                 x           y           z       tot (Debye)
 q only:        0.321      -0.311      -0.101
   full:        0.465      -0.643      -0.156       2.055
molecular quadrupole (traceless):
                xx          xy          yy          xz          yz          zz
 q only:        1.860      -1.280      -1.034       1.137      -1.489      -0.825
  q+dip:        0.402      -1.052      -1.182       2.501      -2.436       0.780
   full:        0.474      -1.198      -1.371       2.603      -2.043       0.897

           -------------------------------------------------
          |                Geometry Summary                 |
           -------------------------------------------------

      molecular mass/u    :      114.1687819
   center of mass at/Å    :       -0.3531065       0.4941556      -0.1322303
  moments of inertia/u·Å² :        0.1345682E+03   0.2240435E+03   0.3541817E+03
rotational constants/cm⁻¹ :        0.1252720E+00   0.7524268E-01   0.4759599E-01

 * 10 selected distances

     #   Z          #   Z                                           value/Å
     1   6 C        2   6 C                                       1.4885180 (max)
     2   6 C        3   6 C                                       1.3368084
     4   6 C        5   7 N                                       1.2726250
     5   7 N        6   7 N                                       1.3157424
     1   6 C        8   1 H                                       1.0905152
     1   6 C        9   1 H                                       1.0874022
     1   6 C       10   1 H                                       1.0903601
     3   6 C       11   1 H                                       1.0793342
     4   6 C       12   1 H                                       1.0789631
     6   7 N       13   1 H                                       1.0141936 (min)

 * 5 distinct bonds (by element types)

   Z      Z             #   av. dist./Å        max./Å        min./Å
   1 H    6 C           5     1.0853149     1.0905152     1.0789631
   6 C    6 C           2     1.4126632     1.4885180     1.3368084
   1 H    7 N           1     1.0141936     1.0141936     1.0141936
   6 C    7 N           1     1.2726250     1.2726250     1.2726250
   7 N    7 N           1     1.3157424     1.3157424     1.3157424


optimized geometry written to: xtbopt.xyz


           -------------------------------------------------
          | TOTAL ENERGY              -20.646957771383 Eh   |
          | GRADIENT NORM               0.000563341418 Eh/α |
          | HOMO-LUMO GAP               1.846101443276 eV   |
           -------------------------------------------------

------------------------------------------------------------------------
 * finished run on 2026/01/15 at 10:07:23.242     
------------------------------------------------------------------------
 total:
 * wall-time:     0 d,  0 h,  0 min, 29.228 sec
 *  cpu-time:     0 d,  0 h,  2 min, 34.961 sec
 * ratio c/w:     5.302 speedup
 SCF:
 * wall-time:     0 d,  0 h,  0 min,  1.539 sec
 *  cpu-time:     0 d,  0 h,  0 min,  5.949 sec
 * ratio c/w:     3.866 speedup
 ANC optimizer:
 * wall-time:     0 d,  0 h,  0 min, 27.539 sec
 *  cpu-time:     0 d,  0 h,  2 min, 28.479 sec
 * ratio c/w:     5.392 speedup

