2
 energy: -7.234979053181 gnorm: 0.000143594562 xtb: 6.7.1 (edcfbbe)
O            0.73358251742145        0.00000000000000        0.00000000000000
S           -0.73358251742145        0.00000000000000        0.00000000000000
